
 Distributed Data Interface kickoff program.
 Initiating 1 compute processes on 1 nodes to run the following command:
 /usr/local/gamess/gamess.00.x /home/webmo/webmo/yamnor/72/input 

          *******************************************************
          *                                                     *
          *      GAMESS VERSION = 30 SEP 2021 (R2 Patch 1)      *
          *                                                     *
          *              doi.org/10.1063/5.0005188              *
          *                                                     *
          **************** 64 BIT LINUX VERSION *****************

  GAMESS HAS BEEN MADE POSSIBLE WITH IMPORTANT CONTRIBUTIONS FROM
  THE FOLLOWING INDIVIDUALS (IN ALPHABETICAL ORDER):

     IVANA ADAMOVIC, CHRISTINE AIKENS, TOMOKO AKAMA,
     YURI ALEXEEV, YURIKO AOKI, POOJA ARORA, TOSHIO ASADA,
     ANDREY ASADCHEV, KIM K. BALDRIDGE, PRADIPTA BANDYOPADHYAY,
     TAYLOR A. BARNES, MARIA BARYSZ, ROB BELL,
     JONATHAN BENTZ, COLLEEN BERTONI,
     JERRY A. BOATZ, BRETT BODE, KURT BRORSEN, KURT R. BRORSEN,
     LAIMUTIS BYTAUTAS, CALEB CARLIN, LAURA CARRINGTON,
     GALINA CHABAN, BENOIT CHAMPAGNE, WEI CHEN, MAHITO CHIBA,
     DAN CHIPMAN, CHEOL HO CHOI, TANNER CULPITT,
     DIPAYAN DATTA, PAUL DAY, ALBERT DEFUSCO,
     NUWAN DESILVA, J. EMILIANO DEUSTUA,
     TIM DUDLEY, MICHEL DUPUIS, STEVEN T. ELBERT,
     DMITRI FEDOROV, ALEX FINDLATER, GRAHAM FLETCHER,
     MARK FREITAG, CHRISTIAN FRIEDL, DAVID GARMER,
     IGOR S. GERASIMOV, KURT GLAESEMANN, MARK S. GORDON,
     JEFFREY GOUR, FENG LONG GU, EMILIE B. GUIDEZ,
     ANASTASIA GUNINA, SHARON HAMMES-SCHIFFER, MASATAKE HARUTA,
     KIMIHIKO HIRAO, YASUHIRO IKABATA, TZVETELIN IORDANOV,
     STEPHAN IRLE, KAZUYA ISHIMURA, JOE IVANIC, FRANK JENSEN,
     JAN H. JENSEN, VISVALDAS KAIRYS, MUNEAKI KAMIYA,
     MICHIO KATOUDA, NAOAKI KAWAKAMI, DAN KEMP, BERNARD KIRTMAN,
     KAZUO KITAURA, MARIUSZ KLOBUKOWSKI, MASATO KOBAYASHI,
     PRAKASHAN KORAMBATH, JACEK KORCHOWIEC, SHIRO KOSEKI,
     KAROL KOWALSKI, JIMMY KROMANN, STANISLAW KUCHARSKI,
     HENRY KURTZ, SAROM SOK LEANG, HUI LI, SHUHUA LI, WEI LI,
     JESSE LUTZ, ALEKSANDR O. LYKHIN, MARCIN MAKOWSKI,
     JOANI MATO, NIKITA MATSUNAGA, BENEDETTA MENNUCCI,
     GRANT MERRILL, NORIYUKI MINEZAWA, VLADIMIR MIRONOV,
     EISAKU MIYOSHI, JOHN A. MONTGOMERY JR., HIROTOSHI MORI,
     JONATHAN MULLIN, MONIKA MUSIAL, SHIGERU NAGASE,
     TAKESHI NAGATA, HIROMI NAKAI, TAKAHITO NAKAJIMA,
     YUYA NAKAJIMA, HARUYUKI NAKANO, HIROYA NAKATA, SEAN NEDD,
     HEATHER NETZLOFF, KIET A. NGUYEN, YOSHIO NISHIMOTO,
     BOSILJKA NJEGIC, RYAN OLSON, MIKE PAK, ROBERTO PEVERATI,
     BUU PHAM, PIOTR PIECUCH, ANNA POMOGAEVA, DAVID POOLE,
     SPENCER PRUITT, OLIVIER QUINET, LUKE ROSKOP,
     KLAUS RUEDENBERG, ANDREW SAND, TOSAPORN SATTASATHUCHANA,
     NOZOMI SAWADA, MICHAEL W. SCHMIDT, PATRICK E. SCHNEIDER,
     JUNJI SEINO, PRACHI SHARMA, JUN SHEN, JIM SHOEMAKER,
     YINAN SHU, DEJUN SI, JONATHAN SKONE, LYUDMILA SLIPCHENKO,
     TONY SMITH, JIE SONG, MARK SPACKMAN, CASPER STEINMANN,
     WALT STEVENS, PEIFENG SU, SHUJUN SU, CHET SWALINA,
     TETSUYA TAKETSUGU, ZHEN TAO, NANDUN THELLAMUREGE
     SEIKEN TOKURA, JACOPO TOMASI, TSUGUKI TOUMA, TAKAO TSUNEDA,
     HIROAKI UMEDA, JORGE LUIS GALVEZ VALLEJO, YALI WANG,
     SIMON WEBB, AARON WEST, THERESA L. WINDUS, MARTA WLOCH,
     PENG XU, KIYOSHI YAGI, SUSUMU YANAGISAWA, YANG YANG,
     SOOHAENG YOO, TAKESHI YOSHIKAWA, FEDERICO ZAHARIEV,
     TOBY ZENG

  WHO ARE SUPPORTED BY THEIR INSTITUTION/UNIVERSITY/COMPANY/GROUP
  (IN ALPHABETICAL ORDER):

     EP ANALYTICS, FACULTES UNIVERSITAIRES NOTRE-DAME DE LA PAIX,
     INSTITUTE FOR MOLECULAR SCIENCE, IOWA STATE UNIVERSITY,
     JACKSON STATE UNIVERSITY, JOHANNES KEPLER UNIVERSITY LINZ,
     KYUSHU UNIVERSITY, MICHIGAN STATE UNIVERSITY,
     MIE UNIVERSITY, THE MOLECULAR SCIENCES SOFTWARE INSTITUTE,
     MOSCOW STATE UNIVERSITY,
     N. COPERNICUS UNIVERSITY, NAGOYA UNIVERSITY,
     NANJING UNIVERSITY, NAT. INST. OF ADVANCED INDUSTRIAL
     SCIENCE AND TECHNOLOGY, NATIONAL INST. OF STANDARDS AND
     TECHNOLOGY, NESMEYANOV INSTITUTE OF ORGANOELEMENT COMPOUNDS
     OF RUSSIAN ACADEMY OF SCIENCES, OSAKA PREFECTURE UNIVERSITY,
     PENNSYLVANIA STATE UNIVERSITY, TOKYO INSTITUTE OF TECHNOLOGY,
     UNIVERSITY OF AARHUS, UNIVERSITY OF ALBERTA,
     UNIVERSITY OF CALIFORNIA AT SANTA BARBARA,
     UNIVERSITY OF COPENHAGEN, UNIVERSITY OF IOWA,
     UNIVERSITY OF MEMPHIS, UNIVERSITY OF MINNESOTA,
     UNIVERSITY OF NEBRASKA, UNIVERSITY OF NEW ENGLAND,
     UNIVERSITY OF NOTRE DAME, UNIVERSITY OF PISA,
     UNIVERSITY OF SILESIA, UNIVERSITY OF TOKYO,
     UNIVERSITY OF ZURICH, WASEDA UNIVERSITY, YALE UNIVERSITY

  GAMESS SOFTWARE MANAGEMENT TEAM FOR THIS RELEASE:
     MARK S. GORDON (TEAM LEAD),
     BRETT BODE (SENIOR ADVISOR),
     GIUSEPPE BARCA,
     COLLEEN BERTONI,
     KRISTOPHER KEIPERT (ADVISOR),
     SAROM S. LEANG (DEVELOPMENT LEAD),
     BUU PHAM,
     JORGE LUIS GALVEZ VALLEJO (WEBSITE ADMINISTRATOR),
     PENG XU

 EXECUTION OF GAMESS BEGUN 20:05:08 10-MAR-2022    

            ECHO OF THE FIRST FEW INPUT CARDS -
 INPUT CARD> $CONTRL                                                                        
 INPUT CARD>   RUNTYP=CONICAL                                                               
 INPUT CARD>   SCFTYP=RHF                                                                   
 INPUT CARD>   DFTTYP=BHHLYP                                                                
 INPUT CARD>   TDDFT=EXCITE                                                                 
 INPUT CARD>   ICHARG=0                                                                     
 INPUT CARD>   MULT=1                                                                       
 INPUT CARD>   COORD=UNIQUE                                                                 
 INPUT CARD> $END                                                                           
 INPUT CARD> $SYSTEM                                                                        
 INPUT CARD>   MWORDS=128                                                                   
 INPUT CARD> $END                                                                           
 INPUT CARD> $BASIS                                                                         
 INPUT CARD>   GBASIS=N31                                                                   
 INPUT CARD>   NGAUSS=6                                                                     
 INPUT CARD>   NDFUNC=1                                                                     
 INPUT CARD> $END                                                                           
 INPUT CARD> $TDDFT                                                                         
 INPUT CARD>   NSTATE=3                                                                     
 INPUT CARD>   TAMMD=.T.                                                                    
 INPUT CARD> $END                                                                           
 INPUT CARD> $CONICL                                                                        
 INPUT CARD>   IXROOT(1)=0,1                                                                
 INPUT CARD> $END                                                                           
 INPUT CARD> $DATA                                                                          
 INPUT CARD>C2H4                                                                            
 INPUT CARD>C1 1                                                                            
 INPUT CARD>C 6  0.00000000  0.00000000  0.00000000                                         
 INPUT CARD>C 6 -1.38285172 -0.00807046  0.01919961                                         
 INPUT CARD>H 1 -1.94426582 -0.73632123  0.61779071                                         
 INPUT CARD>H 1 -2.02319857  0.76882442 -0.39934375                                         
 INPUT CARD>H 1  0.59255565  0.70013679  0.60123577                                         
 INPUT CARD>H 1  0.60594939 -0.81264807 -0.40371118                                         
 INPUT CARD> $END                                                                           
  128000000 WORDS OF MEMORY AVAILABLE

     BASIS OPTIONS
     -------------
     GBASIS=N31          IGAUSS=       6      POLAR=POPN31  
     NDFUNC=       1     NFFUNC=       0     DIFFSP=       F
     NPFUNC=       0      DIFFS=       F     BASNAM=        


     RUN TITLE
     ---------
 C2H4                                                                            

 THE POINT GROUP OF THE MOLECULE IS C1      
 THE ORDER OF THE PRINCIPAL AXIS IS     1

 ATOM      ATOMIC                      COORDINATES (BOHR)
           CHARGE         X                   Y                   Z
 C           6.0     0.0000000000        0.0000000000        0.0000000000
 C           6.0    -2.6132108324       -0.0152509580        0.0362820020
 H           1.0    -3.6741296471       -1.3914453636        1.1674551597
 H           1.0    -3.8232909161        1.4528674865       -0.7546502624
 H           1.0     1.1197678110        1.3230666870        1.1361708593
 H           1.0     1.1450783095       -1.5356821768       -0.7629035084

          INTERNUCLEAR DISTANCES (ANGS.)
          ------------------------------

                1 C          2 C          3 H          4 H          5 H     

   1 C       0.0000000    1.3830085 *  2.1688716 *  2.2008859 *  1.0967216 *
   2 C       1.3830085 *  0.0000000    1.0971993 *  1.0903157 *  2.1777415 *
   3 H       2.1688716 *  1.0971993 *  0.0000000    1.8183114 *  2.9153300 *
   4 H       2.2008859 *  1.0903157 *  1.8183114 *  0.0000000    2.8014367 *
   5 H       1.0967216 *  2.1777415 *  2.9153300 *  2.8014367 *  0.0000000  
   6 H       1.0911252 *  2.1866706 *  2.7482521 *  3.0681417    1.8162092 *

                6 H     

   1 C       1.0911252 *
   2 C       2.1866706 *
   3 H       2.7482521 *
   4 H       3.0681417  
   5 H       1.8162092 *
   6 H       0.0000000  

  * ... LESS THAN  3.000


     ATOMIC BASIS SET
     ----------------
 THE CONTRACTED PRIMITIVE FUNCTIONS HAVE BEEN UNNORMALIZED
 THE CONTRACTED BASIS FUNCTIONS ARE NOW NORMALIZED TO UNITY

  SHELL TYPE  PRIMITIVE        EXPONENT          CONTRACTION COEFFICIENT(S)

 C         

      1   S       1          3047.5248800    0.001834737132
      1   S       2           457.3695180    0.014037322813
      1   S       3           103.9486850    0.068842622264
      1   S       4            29.2101553    0.232184443216
      1   S       5             9.2866630    0.467941348435
      1   S       6             3.1639270    0.362311985337

      2   L       7             7.8682723   -0.119332419775    0.068999066591
      2   L       8             1.8812885   -0.160854151696    0.316423960957
      2   L       9             0.5442493    1.143456437840    0.744308290898

      3   L      10             0.1687145    1.000000000000    1.000000000000

      4   D      11             0.8000000    1.000000000000

 C         

      5   S      12          3047.5248800    0.001834737132
      5   S      13           457.3695180    0.014037322813
      5   S      14           103.9486850    0.068842622264
      5   S      15            29.2101553    0.232184443216
      5   S      16             9.2866630    0.467941348435
      5   S      17             3.1639270    0.362311985337

      6   L      18             7.8682723   -0.119332419775    0.068999066591
      6   L      19             1.8812885   -0.160854151696    0.316423960957
      6   L      20             0.5442493    1.143456437840    0.744308290898

      7   L      21             0.1687145    1.000000000000    1.000000000000

      8   D      22             0.8000000    1.000000000000

 H         

      9   S      23            18.7311370    0.033494604338
      9   S      24             2.8253944    0.234726953484
      9   S      25             0.6401217    0.813757326146

     10   S      26             0.1612778    1.000000000000

 H         

     11   S      27            18.7311370    0.033494604338
     11   S      28             2.8253944    0.234726953484
     11   S      29             0.6401217    0.813757326146

     12   S      30             0.1612778    1.000000000000

 H         

     13   S      31            18.7311370    0.033494604338
     13   S      32             2.8253944    0.234726953484
     13   S      33             0.6401217    0.813757326146

     14   S      34             0.1612778    1.000000000000

 H         

     15   S      35            18.7311370    0.033494604338
     15   S      36             2.8253944    0.234726953484
     15   S      37             0.6401217    0.813757326146

     16   S      38             0.1612778    1.000000000000

 TOTAL NUMBER OF BASIS SET SHELLS             =   16
 NUMBER OF CARTESIAN GAUSSIAN BASIS FUNCTIONS =   38
 NUMBER OF ELECTRONS                          =   16
 CHARGE OF MOLECULE                           =    0
 SPIN MULTIPLICITY                            =    1
 NUMBER OF OCCUPIED ORBITALS (ALPHA)          =    8
 NUMBER OF OCCUPIED ORBITALS (BETA )          =    8
 TOTAL NUMBER OF ATOMS                        =    6
 THE NUCLEAR REPULSION ENERGY IS       32.5197397279

 SELECTED MURRAY-HANDY-LAMING RADIAL GRID

 LEGACY BECKE'S FUZZY CELL METHOD

 SELECTED ORIGINAL BECKE'S PARTITION FUNCTION

     LEBEDEV GRID-BASED DFT OPTIONS
     ------------------------------
     DFTTYP=BHHLYP  
     NRAD  =      96     NLEB  =     302
     NRAD0 =      24     NLEB0 =     110
     SWOFF =    5.00E-03 (PURE SCF -> DFT)
     SWITCH=    3.00E-04 (COARSE -> TIGHT GRID)
     THRESH=    0.00E+00 GTHRE=    1.00E+00

 GRIMME'S EMPIRICAL DISPERSION CORRECTION= F

     $CONTRL OPTIONS
     ---------------
 SCFTYP=RHF          RUNTYP=CONICAL      EXETYP=RUN     
 MPLEVL=       0     CITYP =NONE         CCTYP =NONE         VBTYP =NONE    
 DFTTYP=BHHLYP       TDDFT =EXCITE  
 MULT  =       1     ICHARG=       0     NZVAR =       0     COORD =UNIQUE  
 PP    =NONE         RELWFN=NONE         LOCAL =NONE         NUMGRD=       F
 ISPHER=      -1     NOSYM =       0     MAXIT =      30     UNITS =ANGS    
 PLTORB=       F     MOLPLT=       F     AIMPAC=       F     FRIEND=        
 NPRINT=       7     IREST =       0     GEOM  =INPUT   
 NORMF =       0     NORMP =       0     ITOL  =      20     ICUT  =       9
 INTTYP=BEST         GRDTYP=BEST         QMTTOL= 1.0E-06

     $SYSTEM OPTIONS
     ---------------
  REPLICATED MEMORY=   128000000 WORDS (ON EVERY NODE).
 DISTRIBUTED MEMDDI=           0 MILLION WORDS IN AGGREGATE,
 MEMDDI DISTRIBUTED OVER   1 PROCESSORS IS           0 WORDS/PROCESSOR.
 TOTAL MEMORY REQUESTED ON EACH PROCESSOR=   128000000 WORDS.
 TIMLIM=      525600.00 MINUTES, OR     365.0 DAYS.
 PARALL= F  BALTYP=  DLB     KDIAG=    0  COREFL= F
 MXSEQ2=     300 MXSEQ3=     150  mem10=         0  mem22=         0

          ----------------
          PROPERTIES INPUT
          ----------------

     MOMENTS            FIELD           POTENTIAL          DENSITY
 IEMOM =       1   IEFLD =       0   IEPOT =       0   IEDEN =       0
 WHERE =COMASS     WHERE =NUCLEI     WHERE =NUCLEI     WHERE =NUCLEI  
 OUTPUT=BOTH       OUTPUT=BOTH       OUTPUT=BOTH       OUTPUT=BOTH    
 IEMINT=       0   IEFINT=       0                     IEDINT=       0
                                                       MORB  =       0
          EXTRAPOLATION IN EFFECT
          DIIS IN EFFECT
 ORBITAL PRINTING OPTION: NPREO=     1    38     2     1

     -------------------------------
     INTEGRAL TRANSFORMATION OPTIONS
     -------------------------------
     NWORD  =            0
     CUTOFF = 1.0E-09     MPTRAN =       0
     DIRTRF =       F     AOINTS =DUP     

          ----------------------
          INTEGRAL INPUT OPTIONS
          ----------------------
 NOPK  =       1 NORDER=       0 SCHWRZ=       T

          ----------------------
          TDDFT INPUT PARAMETERS
          ----------------------
 NSTATE=       3 IROOT =       1 MULT  =       1
 MAXVEC=      50 NTRIAL=       5 CNVTOL=  1.00E-07
 TDPRP =       F TRNSD =       F TAMMD =       T
 TPA   =       F ALPHA =       F BETA  =       F
 PFREQ =    0.00    0.00
   NRAD=      48   NLEB=     110

     ------------------------------------------
     THE POINT GROUP IS C1 , NAXIS= 1, ORDER= 1
     ------------------------------------------

     DIMENSIONS OF THE SYMMETRY SUBSPACES ARE
 A   =   38

 ..... DONE SETTING UP THE RUN .....
 STEP CPU TIME =     0.01 TOTAL CPU TIME =          0.0 (      0.0 MIN)
 TOTAL WALL CLOCK TIME=          0.0 SECONDS, CPU UTILIZATION IS    72.42%


          -----------------------------
          STATIONARY POINT LOCATION RUN
          -----------------------------

 OBTAINING INITIAL HESSIAN, HESS=GUESS   
 CARTESIAN COORDINATE OPTIMIZATION USING BADGER'S RULE FORCE CONSTANT GUESS

          PARAMETERS CONTROLLING GEOMETRY SEARCH ARE
          METHOD =QA                  UPHESS =BFGS    
          NNEG   =         0          NFRZ   =         0
          NSTEP  =        50          IFOLOW =         1
          HESS   =GUESS               RESTAR =         F
          IHREP  =         0          HSSEND =         F
          NPRT   =         0          NPUN   =         0
          OPTTOL = 1.000E-04          RMIN   = 1.500E-03
          RMAX   = 1.000E-01          RLIM   = 7.000E-02
          DXMAX  = 2.000E-01          PURIFY =         F
          MOVIE  =         F          TRUPD  =         T
          TRMAX  = 3.000E-01          TRMIN  = 5.000E-02
          ITBMAT =         5          STPT   =         F
          STSTEP = 1.000E-02          PROJCT=          T


          ---------------------------------------
          CONICAL INTERSECTION POINT LOCATION RUN
          ---------------------------------------

          IXROOT(1)=          0          IXROOT(2)=          1
          SYMOFF   =          T          DEBUG    =          F
          TOLSTP   =  1.000E-06          TOLGRD   =  5.000E-03
          ALPHA    =  2.000E-02          SIGMA    =  3.500E+00

 CONICAL INTERSECTION SEARCH BY BRANCHING PLANE UPDATING METHOD

 REFERENCE: S. MAEDA, K. OHNO, AND K. MOROKUMA,
            J. CHEM. THEORY COMPUT. 6, 1538 (2010).

 PROGRAMMED BY NORIYUKI MINEZAWA


 BEGINNING GEOMETRY SEARCH POINT NSERCH=   0 ...

 COORDINATES OF ALL ATOMS ARE (ANGS)
   ATOM   CHARGE       X              Y              Z
 ------------------------------------------------------------
 C           6.0   0.0000000000   0.0000000000   0.0000000000
 C           6.0  -1.3828517200  -0.0080704600   0.0191996100
 H           1.0  -1.9442658200  -0.7363212300   0.6177907100
 H           1.0  -2.0231985700   0.7688244200  -0.3993437500
 H           1.0   0.5925556500   0.7001367900   0.6012357700
 H           1.0   0.6059493900  -0.8126480700  -0.4037111800

          ********************
          1 ELECTRON INTEGRALS
          ********************
 ...... END OF ONE-ELECTRON INTEGRALS ......
 STEP CPU TIME =     0.00 TOTAL CPU TIME =          0.0 (      0.0 MIN)
 TOTAL WALL CLOCK TIME=          0.0 SECONDS, CPU UTILIZATION IS    73.86%

          -------------
          GUESS OPTIONS
          -------------
          GUESS =HUCKEL            NORB  =       0          NORDER=       0
          MIX   =       F          PRTMO =       F          PUNMO =       F
          TOLZ  = 1.0E-08          TOLE  = 1.0E-05
          SYMDEN=       F          PURIFY=       F

 INITIAL GUESS ORBITALS GENERATED BY HUCKEL   ROUTINE.
 HUCKEL GUESS REQUIRES     15726 WORDS.

 SYMMETRIES FOR INITIAL GUESS ORBITALS FOLLOW.   BOTH SET(S).
     8 ORBITALS ARE OCCUPIED (    2 CORE ORBITALS).
     3=A        4=A        5=A        6=A        7=A        8=A        9=A   
    10=A       11=A       12=A       13=A       14=A       15=A       16=A   
    17=A       18=A   
 ...... END OF INITIAL ORBITAL SELECTION ......
 STEP CPU TIME =     0.00 TOTAL CPU TIME =          0.0 (      0.0 MIN)
 TOTAL WALL CLOCK TIME=          0.0 SECONDS, CPU UTILIZATION IS    75.62%

                    ----------------------
                    AO INTEGRAL TECHNOLOGY
                    ----------------------
     S,P,L SHELL ROTATED AXIS INTEGRALS, REPROGRAMMED BY
        KAZUYA ISHIMURA (IMS) AND JOSE SIERRA (SYNSTAR).
     S,P,D,L SHELL ROTATED AXIS INTEGRALS PROGRAMMED BY
        KAZUYA ISHIMURA (INSTITUTE FOR MOLECULAR SCIENCE).
     S,P,D,F,G SHELL TO TOTAL QUARTET ANGULAR MOMENTUM SUM 5,
        ERIC PROGRAM BY GRAHAM FLETCHER (ELORET AND NASA ADVANCED
        SUPERCOMPUTING DIVISION, AMES RESEARCH CENTER).
     S,P,D,F,G,L SHELL GENERAL RYS QUADRATURE PROGRAMMED BY
        MICHEL DUPUIS (PACIFIC NORTHWEST NATIONAL LABORATORY).

          --------------------
          2 ELECTRON INTEGRALS
          --------------------

 THE -PK- OPTION IS OFF, THE INTEGRALS ARE NOT IN SUPERMATRIX FORM.
 STORING   15000 INTEGRALS/RECORD ON DISK, USING 12 BYTES/INTEGRAL.
 TWO ELECTRON INTEGRAL EVALUATION REQUIRES   90532 WORDS OF MEMORY.
 SCHWARZ INEQUALITY OVERHEAD:       741 INTEGRALS, T=        0.00
 II,JST,KST,LST =  1  1  1  1 NREC =         1 INTLOC =    1
 II,JST,KST,LST =  2  1  1  1 NREC =         1 INTLOC =    2
 II,JST,KST,LST =  3  1  1  1 NREC =         1 INTLOC =   34
 II,JST,KST,LST =  4  1  1  1 NREC =         1 INTLOC =  214
 II,JST,KST,LST =  5  1  1  1 NREC =         1 INTLOC = 1189
 II,JST,KST,LST =  6  1  1  1 NREC =         1 INTLOC = 3216
 II,JST,KST,LST =  7  1  1  1 NREC =         2 INTLOC =  953
 II,JST,KST,LST =  8  1  1  1 NREC =         3 INTLOC = 8192
 II,JST,KST,LST =  9  1  1  1 NREC =         7 INTLOC = 6081
 II,JST,KST,LST = 10  1  1  1 NREC =         8 INTLOC = 5989
 II,JST,KST,LST = 11  1  1  1 NREC =         9 INTLOC = 7387
 II,JST,KST,LST = 12  1  1  1 NREC =        10 INTLOC =10368
 II,JST,KST,LST = 13  1  1  1 NREC =        12 INTLOC =   36
 II,JST,KST,LST = 14  1  1  1 NREC =        13 INTLOC = 6476
 II,JST,KST,LST = 15  1  1  1 NREC =        14 INTLOC =14822
 II,JST,KST,LST = 16  1  1  1 NREC =        16 INTLOC =10139
 SCHWARZ INEQUALITY TEST SKIPPED          16 INTEGRAL BLOCKS.
 TOTAL NUMBER OF NONZERO TWO-ELECTRON INTEGRALS =              262592
         18 INTEGRAL RECORDS WERE STORED ON DISK FILE  8.
  ...... END OF TWO-ELECTRON INTEGRALS .....
 STEP CPU TIME =     0.06 TOTAL CPU TIME =          0.1 (      0.0 MIN)
 TOTAL WALL CLOCK TIME=          0.1 SECONDS, CPU UTILIZATION IS    53.57%

          --------------------------
            R-BHHLYP SCF CALCULATION
          --------------------------

     NUCLEAR ENERGY =        32.5197397279
     MAXIT =   30     NPUNCH=    2
     EXTRAP=T  DAMP=F  SHIFT=F  RSTRCT=F  DIIS=T  DEM=F  SOSCF=F
         DENSITY MATRIX CONVERGENCE THRESHOLD=  1.00E-06
     COARSE -> FINE DFT GRID SWITCH THRESHOLD=  3.00E-04 (SWITCH IN $DFT)
                   HF -> DFT SWITCH THRESHOLD=  5.00E-03 (SWOFF IN $DFT)
     MEMORY REQUIRED FOR RHF ITERS=    266475 WORDS.

 DFT CODE IS SWITCHING FROM THE FINE GRID NRAD= 96,  NLEB=  302
                      TO THE COARSE GRID NRAD0= 24, NLEB0=  110

     EXCHANGE FUNCTIONAL   =B88&HFX   
     CORRELATION FUNCTIONAL=LYP88     
     DFT THRESHOLD         =.230E-07
     GRID CHANGE THRESHOLD =.300E-03
 FOR AN EULER-MACLAURIN QUADRATURE USING  96 RADIAL POINTS:
 SMALLEST GAUSSIAN PRIMITIVE EXPONENT=        0.1612777588 OF TYPE -S-
 ON ATOM NUMBER   3 HAS RADIAL NORMALIZATION=  1.000000
  LARGEST GAUSSIAN PRIMITIVE EXPONENT=     3047.5248800000 OF TYPE -S-
 ON ATOM NUMBER   1 HAS RADIAL NORMALIZATION=  1.000000
 DFT IS SWITCHED OFF, PERFORMING PURE SCF UNTIL SWOFF THRESHOLD IS REACHED.

 ITER EX DEM     TOTAL ENERGY        E CHANGE  DENSITY CHANGE    DIIS ERROR
          * * *   INITIATING DIIS PROCEDURE   * * *
   1  0  0      -77.7370139104   -77.7370139104   0.128166552   0.437272100
   2  1  0      -77.9134216357    -0.1764077254   0.045247100   0.064868899
   3  2  0      -77.9241657484    -0.0107441126   0.013432734   0.021075564
   4  3  0      -77.9253626419    -0.0011968936   0.007054084   0.009462037
   5  4  0      -77.9256188750    -0.0002562331   0.001378399   0.001558335
 CONVERGED TO SWOFF, SO DFT CALCULATION IS NOW SWITCHED ON.
          * * *   INITIATING DIIS PROCEDURE   * * *
   6  5  0      -78.4278926071    -0.5022737321   0.031225356   0.067203285
   7  6  0      -78.4312588678    -0.0033662607   0.014848075   0.016024666
   8  7  0      -78.4315992351    -0.0003403673   0.006059828   0.008531199
   9  8  0      -78.4317721224    -0.0001728874   0.000393837   0.000467018
  10  9  0      -78.4317724888    -0.0000003664   0.000232165   0.000158884
 DFT CODE IS SWITCHING BACK TO THE FINE GRID
          * * *   INITIATING DIIS PROCEDURE   * * *
  11 10  0      -78.4319497162    -0.0001772273   0.000374935   0.000834632
  12 11  0      -78.4319503192    -0.0000006030   0.000296148   0.000149866
  13 12  0      -78.4319503058     0.0000000134   0.000166739   0.000165632
  14 13  0      -78.4319504165    -0.0000001107   0.000018646   0.000021949
  15 14  0      -78.4319504175    -0.0000000010   0.000005242   0.000006451
  16 15  0      -78.4319504176    -0.0000000001   0.000000672   0.000000592
  17 16  0      -78.4319504176    -0.0000000000   0.000000138   0.000000143

          -----------------
          DENSITY CONVERGED
          -----------------
     TIME TO FORM FOCK OPERATORS=       4.3 SECONDS (       0.3 SEC/ITER)
     TIME TO SOLVE SCF EQUATIONS=       0.0 SECONDS (       0.0 SEC/ITER)

 FINAL R-BHHLYP ENERGY IS      -78.4319504176 AFTER  17 ITERATIONS
 DFT EXCHANGE + CORRELATION ENERGY =        -6.3446898530
 TOTAL ELECTRON NUMBER             =        15.9999520246

          ------------
          EIGENVECTORS
          ------------

                      1          2          3          4          5
                  -10.6017   -10.6004    -0.8541    -0.6722    -0.5038
                     A          A          A          A          A   
    1  C  1  S    0.350577   0.930057  -0.156680  -0.122403  -0.003228
    2  C  1  S    0.013939   0.037746   0.305420   0.244569   0.007220
    3  C  1  X    0.000364  -0.000207  -0.093048   0.165265   0.014893
    4  C  1  Y   -0.000023  -0.000050  -0.005034  -0.012462   0.305977
    5  C  1  Z    0.000034   0.000060   0.010190   0.013015   0.109639
    6  C  1  S   -0.001144  -0.012653   0.242372   0.241175   0.006081
    7  C  1  X   -0.001557   0.001276  -0.003554   0.063656   0.008149
    8  C  1  Y    0.000117   0.000165  -0.002743  -0.003319   0.125341
    9  C  1  Z   -0.000060  -0.000277   0.003691   0.006712   0.036691
   10  C  1 XX   -0.002518  -0.005566   0.012018  -0.004258  -0.000361
   11  C  1 YY   -0.002429  -0.006013  -0.004417   0.008414  -0.002720
   12  C  1 ZZ   -0.002411  -0.006195  -0.009545  -0.003582   0.003400
   13  C  1 XY   -0.000023  -0.000022  -0.000742  -0.001544   0.007796
   14  C  1 XZ    0.000002   0.000021   0.000752   0.002626   0.012925
   15  C  1 YZ    0.000103   0.000131   0.008964   0.013814   0.002951
   16  C  2  S    0.929913  -0.350955  -0.156964   0.122271   0.002133
   17  C  2  S    0.037537  -0.014457   0.306208  -0.244532  -0.004964
   18  C  2  X   -0.000092  -0.000407   0.092901   0.167728  -0.015839
   19  C  2  Y    0.000011   0.000004   0.001927  -0.009408   0.309652
   20  C  2  Z    0.000030   0.000011   0.006349  -0.010653  -0.115119
   21  C  2  S   -0.010188   0.007503   0.242676  -0.241235  -0.000735
   22  C  2  X    0.000087   0.002027   0.003373   0.064396  -0.003509
   23  C  2  Y   -0.000096  -0.000065   0.001484  -0.001813   0.127481
   24  C  2  Z   -0.000164   0.000106   0.002807  -0.006304  -0.039200
   25  C  2 XX   -0.005840   0.001784   0.012121   0.004180   0.001320
   26  C  2 YY   -0.006124   0.002147  -0.004594  -0.008216   0.001617
   27  C  2 ZZ   -0.006248   0.002281  -0.009468   0.003431  -0.002833
   28  C  2 XY   -0.000037   0.000002  -0.000941   0.001858  -0.008359
   29  C  2 XZ   -0.000003   0.000024  -0.000882   0.001547   0.012927
   30  C  2 YZ   -0.000172   0.000012  -0.009121   0.014096   0.002327
   31  H  3  S   -0.000269  -0.000045   0.085985  -0.140634  -0.160512
   32  H  3  S    0.002163  -0.000521   0.016593  -0.061855  -0.126103
   33  H  4  S   -0.000289   0.000003   0.083431  -0.147907   0.161876
   34  H  4  S    0.002162  -0.000453   0.015186  -0.066213   0.125114
   35  H  5  S   -0.000209  -0.000182   0.085133   0.142270   0.164254
   36  H  5  S    0.001060   0.001950   0.016383   0.062683   0.129152
   37  H  6  S   -0.000187  -0.000197   0.084048   0.145374  -0.151818
   38  H  6  S    0.001074   0.001967   0.015256   0.064880  -0.117948

                      6          7          8          9         10
                   -0.4898    -0.4635    -0.2381    -0.0134     0.1810
                     A          A          A          A          A   
    1  C  1  S    0.013050   0.003320   0.006782   0.012988   0.109015
    2  C  1  S   -0.032823  -0.007178  -0.012740  -0.026063  -0.130090
    3  C  1  X    0.406568  -0.030333  -0.034095  -0.018736  -0.082836
    4  C  1  Y   -0.011875   0.204055  -0.256097  -0.188576   0.024360
    5  C  1  Z    0.033073   0.255076   0.281918   0.314632  -0.022154
    6  C  1  S   -0.000834  -0.010838  -0.034825  -0.053561  -1.617956
    7  C  1  X    0.148506  -0.012270  -0.026365  -0.054436  -0.262365
    8  C  1  Y   -0.005234   0.092078  -0.205647  -0.264476   0.061133
    9  C  1  Z    0.015172   0.121404   0.282711   0.387259  -0.107053
   10  C  1 XX   -0.008253  -0.000008   0.000068   0.001172   0.013507
   11  C  1 YY    0.014990  -0.004360   0.001595  -0.000411   0.005138
   12  C  1 ZZ    0.005383   0.003988  -0.000393   0.002156   0.007955
   13  C  1 XY   -0.001215   0.022373  -0.020026   0.014388  -0.002594
   14  C  1 XZ    0.001428   0.000879  -0.021801   0.022056  -0.001941
   15  C  1 YZ    0.009449   0.000907  -0.001846   0.000320   0.005423
   16  C  2  S    0.013414   0.001441   0.003560  -0.010722  -0.111270
   17  C  2  S   -0.033456  -0.003030  -0.005076   0.023475   0.133266
   18  C  2  X   -0.405674   0.037915   0.036007  -0.012303  -0.090208
   19  C  2  Y   -0.013764  -0.194478   0.258241  -0.193235   0.027818
   20  C  2  Z    0.044010   0.254600   0.278040  -0.314964   0.014327
   21  C  2  S   -0.003195  -0.006031  -0.028801   0.031696   1.660914
   22  C  2  X   -0.149096   0.015120   0.025830  -0.047919  -0.282215
   23  C  2  Y   -0.005249  -0.087780   0.207334  -0.271008   0.067314
   24  C  2  Z    0.017988   0.121701   0.279965  -0.386941   0.085319
   25  C  2 XX   -0.007996  -0.001063   0.001531   0.000221  -0.013629
   26  C  2 YY    0.014725  -0.002357   0.000592   0.000049  -0.005211
   27  C  2 ZZ    0.005536   0.002979  -0.001329  -0.002403  -0.008048
   28  C  2 XY   -0.001102   0.022386  -0.019949  -0.013972   0.002544
   29  C  2 XZ   -0.000418  -0.000906   0.021892   0.022086  -0.002299
   30  C  2 YZ   -0.009770  -0.001587   0.001994   0.001144   0.005173
   31  H  3  S    0.133859   0.158285  -0.087385  -0.090548  -0.040008
   32  H  3  S    0.109101   0.128045  -0.143348  -0.211452  -0.941846
   33  H  4  S    0.113963  -0.169103   0.090910   0.065096  -0.056130
   34  H  4  S    0.091355  -0.137894   0.139281   0.144762  -1.074876
   35  H  5  S    0.127364   0.159524  -0.084014   0.094739   0.039944
   36  H  5  S    0.102969   0.129264  -0.140115   0.217487   0.949376
   37  H  6  S    0.121327  -0.174053   0.094054  -0.062751   0.053621
   38  H  6  S    0.098089  -0.142297   0.141223  -0.142255   1.009456

                     11         12         13         14         15
                    0.1876     0.2275     0.2614     0.3633     0.5609
                     A          A          A          A          A   
    1  C  1  S   -0.082993   0.005339   0.004559   0.080539  -0.020300
    2  C  1  S    0.130783   0.001994  -0.001572  -0.065214  -0.265187
    3  C  1  X    0.181385  -0.014535  -0.011479   0.188348   0.572861
    4  C  1  Y   -0.007987  -0.224448   0.261473  -0.015345   0.001681
    5  C  1  Z    0.025595  -0.211020   0.163042   0.013981   0.000697
    6  C  1  S    1.450936  -0.168785  -0.150845  -2.593795  -0.198715
    7  C  1  X    0.615198  -0.028095  -0.045690   2.684429  -1.027796
    8  C  1  Y   -0.062075  -0.584411   1.252996  -0.015221   0.016115
    9  C  1  Z    0.064632  -0.852186   0.397440   0.034558  -0.000847
   10  C  1 XX    0.005958  -0.000471  -0.000330   0.013157  -0.099893
   11  C  1 YY   -0.008238   0.001447   0.001253  -0.014489   0.020318
   12  C  1 ZZ   -0.004157   0.000438  -0.000367  -0.003778   0.012131
   13  C  1 XY   -0.000247   0.017591   0.014027   0.001150   0.000189
   14  C  1 XZ   -0.000869  -0.010030  -0.009236   0.001656   0.001601
   15  C  1 YZ    0.005070   0.000913   0.000710  -0.022430   0.008941
   16  C  2  S   -0.080248   0.000589   0.001631  -0.080446  -0.020646
   17  C  2  S    0.128573  -0.011919  -0.003316   0.066249  -0.266831
   18  C  2  X   -0.178720   0.010542   0.011551   0.187914  -0.569937
   19  C  2  Y   -0.017459  -0.222539  -0.259503  -0.011169  -0.029631
   20  C  2  Z    0.038456   0.209938   0.166189  -0.011675   0.019548
   21  C  2  S    1.402573   0.044850  -0.052591   2.584976  -0.191818
   22  C  2  X   -0.615596   0.059570   0.082051   2.688296   1.035122
   23  C  2  Y   -0.009024  -0.582427  -1.247091  -0.004987   0.012624
   24  C  2  Z    0.101235   0.849344   0.415048  -0.096404  -0.031871
   25  C  2 XX    0.006589  -0.000065   0.000435  -0.013146  -0.100866
   26  C  2 YY   -0.008232  -0.001963   0.001495   0.014303   0.019943
   27  C  2 ZZ   -0.003860   0.000229  -0.002171   0.004150   0.012509
   28  C  2 XY   -0.001734  -0.017492   0.014165  -0.002394   0.000514
   29  C  2 XZ    0.000891  -0.010049   0.008897   0.002771   0.001299
   30  C  2 YZ   -0.004988   0.001735  -0.000721  -0.022578  -0.009245
   31  H  3  S   -0.021750  -0.024267  -0.000235   0.058552   0.061681
   32  H  3  S   -1.099996  -1.116715  -1.216430   0.488632   0.104952
   33  H  4  S   -0.012062   0.029168  -0.006750   0.050801   0.026865
   34  H  4  S   -0.962162   1.086895   1.317919   0.566317   0.190985
   35  H  5  S   -0.018753   0.023848  -0.000407  -0.054494   0.049297
   36  H  5  S   -1.046397   1.209463  -1.168928  -0.508407   0.120940
   37  H  6  S   -0.017416  -0.030578  -0.005669  -0.055588   0.044726
   38  H  6  S   -1.058969  -0.997306   1.358399  -0.535152   0.161687

                     16         17         18         19         20
                    0.6479     0.6595     0.7167     0.7439     0.7554
                     A          A          A          A          A   
    1  C  1  S    0.003544   0.011461   0.035945  -0.058181  -0.054305
    2  C  1  S   -0.070184  -0.010422   0.049216   0.119477  -0.619205
    3  C  1  X   -0.010532   0.034278   0.307176  -0.589824  -0.086839
    4  C  1  Y   -0.403146  -0.551445   0.020815  -0.106588  -0.069113
    5  C  1  Z    0.631846   0.368605  -0.547155  -0.240596  -0.131706
    6  C  1  S    0.064458   0.029800  -0.125880  -0.059108   1.447252
    7  C  1  X   -0.017582  -0.135243  -0.415284   0.748683   0.636256
    8  C  1  Y    0.330540   0.769248   0.213566   0.287081   0.268081
    9  C  1  Z   -0.629848  -0.040893   1.110144   0.712843   0.374322
   10  C  1 XX   -0.009236   0.014009   0.081692  -0.121015  -0.088834
   11  C  1 YY   -0.006044   0.010642   0.013451   0.020875  -0.085665
   12  C  1 ZZ   -0.001120  -0.014446  -0.025931   0.025875  -0.001282
   13  C  1 XY   -0.008800  -0.041301  -0.087472  -0.045292  -0.017110
   14  C  1 XZ   -0.039376  -0.000203  -0.019313  -0.011864  -0.035268
   15  C  1 YZ    0.001892   0.005322   0.028810  -0.057843  -0.103803
   16  C  2  S    0.001676  -0.009542  -0.032469   0.075053  -0.032386
   17  C  2  S   -0.067748   0.003470   0.021128   0.128445  -0.624801
   18  C  2  X    0.026529   0.057313   0.335305  -0.573377  -0.104518
   19  C  2  Y    0.412611  -0.550338   0.017292  -0.092288   0.029878
   20  C  2  Z    0.637956  -0.365999   0.528976   0.270535   0.018105
   21  C  2  S    0.053857   0.005717   0.027887  -0.485204   1.391478
   22  C  2  X   -0.045327  -0.197482  -0.450286   0.903107  -0.350075
   23  C  2  Y   -0.337993   0.760256   0.228591   0.240365  -0.158604
   24  C  2  Z   -0.637068   0.038750  -1.104609  -0.758118  -0.049158
   25  C  2 XX   -0.007687  -0.012749  -0.073871   0.147999  -0.043933
   26  C  2 YY   -0.006555  -0.007623  -0.001109   0.016983  -0.087838
   27  C  2 ZZ   -0.002889   0.008690   0.024185  -0.026923  -0.010699
   28  C  2 XY   -0.007292   0.041807   0.089486   0.040692   0.009747
   29  C  2 XZ    0.039271  -0.000984  -0.024810  -0.014504   0.028442
   30  C  2 YZ    0.001414   0.005268   0.020680  -0.093213   0.079188
   31  H  3  S    0.024049   0.175347   0.117235   0.493234  -0.451622
   32  H  3  S    0.150431   0.140254   0.057318   0.332129  -0.214295
   33  H  4  S   -0.045513  -0.295933  -0.375675   0.220293  -0.366808
   34  H  4  S   -0.135768  -0.200339  -0.116510   0.050494  -0.194956
   35  H  5  S    0.035517  -0.174262  -0.062998  -0.326134  -0.611337
   36  H  5  S    0.165522  -0.151605  -0.064030  -0.250461  -0.351105
   37  H  6  S   -0.029743   0.296031   0.400003  -0.034006  -0.380739
   38  H  6  S   -0.124458   0.190968   0.116571   0.031637  -0.173272

                     21         22         23         24         25
                    0.8498     0.9531     0.9811     1.0122     1.0484
                     A          A          A          A          A   
    1  C  1  S   -0.010779   0.004999   0.003699  -0.026542   0.011767
    2  C  1  S   -0.147441  -0.046743   0.149860   0.535695  -1.062674
    3  C  1  X   -0.074096   0.014057   0.078616   0.524195  -0.346770
    4  C  1  Y    0.546623  -0.537914   0.490401  -0.088331   0.053663
    5  C  1  Z    0.298569  -0.413589   0.275205   0.011969  -0.050703
    6  C  1  S    0.451761   0.140985  -0.322388  -0.895611   2.094369
    7  C  1  X    0.232130  -0.068592  -0.181509  -0.863794   0.619655
    8  C  1  Y   -2.155712   0.866826  -0.638389   0.127731  -0.016932
    9  C  1  Z   -0.646834   0.818841  -0.407281   0.029331   0.112330
   10  C  1 XX   -0.017797   0.003621   0.020027   0.088625  -0.105442
   11  C  1 YY   -0.049757  -0.012501   0.029790  -0.035960  -0.003025
   12  C  1 ZZ    0.029883   0.005873  -0.021123   0.047040  -0.047111
   13  C  1 XY    0.028659   0.162661  -0.053610   0.019070  -0.010948
   14  C  1 XZ    0.091583   0.026387  -0.163796   0.002567  -0.009371
   15  C  1 YZ   -0.013622   0.013560  -0.009078  -0.097006   0.073894
   16  C  2  S   -0.003577  -0.004393   0.002725   0.026426   0.010629
   17  C  2  S   -0.164306   0.077243   0.132601  -0.571430  -1.044491
   18  C  2  X    0.010002   0.024044   0.022496   0.534960   0.345169
   19  C  2  Y   -0.551156  -0.533238  -0.496788  -0.039897  -0.048260
   20  C  2  Z    0.319999   0.417741   0.276379  -0.030859  -0.032892
   21  C  2  S    0.404677  -0.193521  -0.319682   0.975838   2.058183
   22  C  2  X   -0.209909  -0.097055   0.017258  -0.896221  -0.612580
   23  C  2  Y    2.169229   0.869360   0.651067   0.105530   0.004237
   24  C  2  Z   -0.734266  -0.827541  -0.403919  -0.006897   0.075179
   25  C  2 XX   -0.009360   0.004388   0.013980  -0.091279  -0.103859
   26  C  2 YY   -0.045083   0.008453   0.025244   0.030100  -0.005205
   27  C  2 ZZ    0.023281  -0.004912  -0.020554  -0.044285  -0.044291
   28  C  2 XY    0.035891  -0.161849  -0.056821  -0.017219  -0.017444
   29  C  2 XZ   -0.092392   0.024366   0.163797  -0.006024   0.015871
   30  C  2 YZ    0.007651   0.018265   0.004849  -0.100150  -0.072146
   31  H  3  S    0.186180  -0.466368  -0.506256   0.521000   0.322071
   32  H  3  S    0.704300   1.138484   0.982099  -0.867742  -0.946327
   33  H  4  S   -0.311709   0.375519   0.544505   0.489120   0.463904
   34  H  4  S   -0.937567  -1.034518  -0.809581  -0.998158  -1.045116
   35  H  5  S    0.162360   0.465904  -0.537353  -0.461108   0.347859
   36  H  5  S    0.651660  -1.116918   1.053993   0.778812  -0.995391
   37  H  6  S   -0.311333  -0.389742   0.503961  -0.537926   0.459170
   38  H  6  S   -0.947720   1.058993  -0.717078   1.017575  -1.034962

                     26         27         28         29         30
                    1.1317     1.6660     1.8121     1.8319     1.9779
                     A          A          A          A          A   
    1  C  1  S   -0.034008   0.005587   0.012364   0.006783   0.016824
    2  C  1  S   -1.415413   0.059243   0.132529   0.086351   0.169652
    3  C  1  X    0.295861  -0.003232  -0.001898  -0.030749  -0.007090
    4  C  1  Y    0.006386  -0.021608   0.040474   0.077642  -0.135720
    5  C  1  Z    0.004082  -0.076349   0.083533  -0.068447  -0.032187
    6  C  1  S    4.987653  -0.173521  -0.517533  -0.218429  -0.690089
    7  C  1  X   -1.917185  -0.076462  -0.032763   0.053352   0.057770
    8  C  1  Y   -0.058451  -0.141524   0.647924  -0.603187  -0.251846
    9  C  1  Z    0.086556  -0.044468   0.206468  -0.082058  -0.519125
   10  C  1 XX    0.008311  -0.012851   0.014580  -0.022775   0.026342
   11  C  1 YY   -0.134330  -0.510917   0.091987   0.484913   0.094867
   12  C  1 ZZ   -0.081641   0.529747  -0.102996  -0.452802  -0.116689
   13  C  1 XY   -0.002267   0.002133   0.059062   0.373775  -0.529792
   14  C  1 XZ   -0.000541  -0.279844   0.350205  -0.431794   0.191034
   15  C  1 YZ   -0.120471   0.173624  -0.282177  -0.274605  -0.383479
   16  C  2  S    0.033149   0.006019  -0.007398  -0.010902  -0.018128
   17  C  2  S    1.406583   0.065401  -0.093893  -0.107579  -0.191171
   18  C  2  X    0.295340   0.000415  -0.017982  -0.006072  -0.023856
   19  C  2  Y    0.004467  -0.002538   0.066468   0.051025  -0.134582
   20  C  2  Z   -0.007649  -0.071717   0.065345  -0.089060   0.024515
   21  C  2  S   -4.960435  -0.200722   0.309822   0.414232   0.697855
   22  C  2  X   -1.929372   0.066832   0.103509  -0.106552   0.104181
   23  C  2  Y    0.025219   0.147579  -0.568539   0.704299  -0.200981
   24  C  2  Z   -0.047337  -0.031806   0.102262  -0.260880   0.499889
   25  C  2 XX   -0.009185   0.000055  -0.000552  -0.006866   0.011151
   26  C  2 YY    0.127880  -0.491499  -0.538896  -0.100037  -0.052647
   27  C  2 ZZ    0.086961   0.497409   0.533039   0.105339   0.026749
   28  C  2 XY    0.001618   0.069760  -0.320097  -0.085815   0.542248
   29  C  2 XZ   -0.004570   0.303344  -0.379711   0.365811   0.229764
   30  C  2 YZ   -0.119451  -0.141651  -0.288219  -0.275972  -0.369593
   31  H  3  S    0.183287   0.139493  -0.195525   0.225938  -0.499960
   32  H  3  S    0.203161   0.075524  -0.187660   0.091250  -0.139032
   33  H  4  S    0.123465  -0.019335   0.076959  -0.464106   0.193232
   34  H  4  S    0.187014   0.043532   0.162360  -0.267354  -0.008380
   35  H  5  S   -0.169227   0.160864  -0.188508   0.198880   0.524560
   36  H  5  S   -0.188654   0.058086  -0.068248   0.191846   0.153967
   37  H  6  S   -0.151766  -0.043177   0.416553  -0.066047  -0.220892
   38  H  6  S   -0.218418   0.054968   0.254118  -0.175508   0.001321

                     31         32         33         34         35
                    2.1137     2.1304     2.2763     2.5623     2.6920
                     A          A          A          A          A   
    1  C  1  S   -0.032708   0.028088   0.022531  -0.006882   0.008250
    2  C  1  S   -0.424070   0.200291  -0.065719  -0.012921  -0.010507
    3  C  1  X    0.309916  -0.021972   0.045764  -0.018396   0.027657
    4  C  1  Y   -0.007865   0.059980   0.002028   0.103153  -0.033181
    5  C  1  Z   -0.006489   0.010821  -0.024273  -0.047816   0.081508
    6  C  1  S    0.585290  -0.965091  -0.366401   0.192316  -0.185270
    7  C  1  X   -0.312772  -0.001277  -0.349177  -0.079755   0.051769
    8  C  1  Y   -0.026684   0.129339  -0.031580   0.029999   0.084681
    9  C  1  Z    0.014362   0.080079  -0.048630  -0.116447   0.055857
   10  C  1 XX    0.580239   0.140216   0.173165   0.050853  -0.056063
   11  C  1 YY   -0.280035  -0.549127  -0.209801  -0.071291  -0.029869
   12  C  1 ZZ   -0.521064   0.400903   0.052147   0.010304   0.106756
   13  C  1 XY   -0.005011   0.177763   0.020804   0.223512   0.901239
   14  C  1 XZ   -0.013920  -0.065494  -0.062457   0.872386   0.165632
   15  C  1 YZ    0.264284  -0.418713  -0.729511   0.069617  -0.008513
   16  C  2  S   -0.019969  -0.037501   0.023353   0.003805  -0.000302
   17  C  2  S   -0.314337  -0.335341  -0.059498   0.022290  -0.009073
   18  C  2  X   -0.280666  -0.135871  -0.042693  -0.022176   0.039384
   19  C  2  Y   -0.005273   0.060725   0.009830   0.103893   0.032194
   20  C  2  Z    0.002144  -0.014359  -0.023251   0.051782   0.079807
   21  C  2  S    0.171030   1.091100  -0.385065  -0.166074   0.093776
   22  C  2  X    0.291552   0.119018   0.352883  -0.096116   0.115670
   23  C  2  Y    0.000835   0.010298   0.044624   0.030257  -0.084707
   24  C  2  Z    0.005926  -0.056980  -0.041315   0.122130   0.055853
   25  C  2 XX    0.591000   0.085428   0.180409  -0.009425   0.035515
   26  C  2 YY   -0.461473   0.368779  -0.209672   0.055061  -0.045977
   27  C  2 ZZ   -0.338392  -0.529679   0.046645  -0.051503   0.030386
   28  C  2 XY    0.042976  -0.221656   0.012990  -0.194286   0.906402
   29  C  2 XZ   -0.014910  -0.082952   0.089639   0.864192  -0.193518
   30  C  2 YZ   -0.082990  -0.481315   0.750536   0.031832  -0.019160
   31  H  3  S    0.041755  -0.230068   0.447540   0.308202  -0.363878
   32  H  3  S   -0.051625  -0.107017   0.034156  -0.152410   0.140041
   33  H  4  S    0.054717  -0.469453   0.309765  -0.285242   0.431768
   34  H  4  S   -0.030005  -0.050800   0.055061   0.133431  -0.119227
   35  H  5  S   -0.066031   0.207824   0.409154  -0.353622  -0.349893
   36  H  5  S   -0.078941   0.049963   0.045754   0.160118   0.128408
   37  H  6  S   -0.106554   0.496813   0.326448   0.266537   0.432314
   38  H  6  S   -0.069927   0.073419   0.040025  -0.136215  -0.128642

                     36         37         38
                    2.7792     4.2380     4.3731
                     A          A          A   
    1  C  1  S    0.077017  -0.331166  -0.332240
    2  C  1  S   -0.183210   2.186398   2.105389
    3  C  1  X    0.652375  -0.106757   0.296481
    4  C  1  Y    0.013835   0.005571   0.008834
    5  C  1  Z   -0.016106  -0.009913  -0.011543
    6  C  1  S   -2.077999   1.018620   1.709013
    7  C  1  X    1.229452   0.155271  -0.165182
    8  C  1  Y   -0.002706  -0.026060  -0.019058
    9  C  1  Z   -0.013358   0.031380   0.041665
   10  C  1 XX   -1.063825  -1.217710  -1.679620
   11  C  1 YY    0.550905  -1.299217  -1.270751
   12  C  1 ZZ    0.562664  -1.291188  -1.261263
   13  C  1 XY   -0.041727   0.010239   0.000098
   14  C  1 XZ    0.044112  -0.005462   0.003567
   15  C  1 YZ   -0.004156  -0.032315   0.004903
   16  C  2  S   -0.077874  -0.333286   0.329631
   17  C  2  S    0.187699   2.202538  -2.090725
   18  C  2  X    0.651125   0.103789   0.296749
   19  C  2  Y    0.012899  -0.002820   0.006235
   20  C  2  Z   -0.012962  -0.010076   0.000813
   21  C  2  S    2.082148   1.020733  -1.697734
   22  C  2  X    1.225581  -0.156744  -0.167707
   23  C  2  Y    0.005662   0.016451   0.000041
   24  C  2  Z   -0.021920   0.022501  -0.033955
   25  C  2 XX    1.064572  -1.231445   1.671085
   26  C  2 YY   -0.547888  -1.307324   1.261507
   27  C  2 ZZ   -0.571923  -1.299346   1.250954
   28  C  2 XY   -0.044803   0.011882  -0.002172
   29  C  2 XZ    0.011051  -0.003181  -0.007937
   30  C  2 YZ   -0.007128   0.032757   0.004191
   31  H  3  S    0.032941   0.137064  -0.083458
   32  H  3  S    0.029869  -0.346316   0.290946
   33  H  4  S   -0.059684   0.142741  -0.101747
   34  H  4  S    0.088174  -0.348704   0.290180
   35  H  5  S    0.006357   0.137784   0.087256
   36  H  5  S   -0.051279  -0.347102  -0.291092
   37  H  6  S    0.004466   0.138991   0.097027
   38  H  6  S   -0.063363  -0.346737  -0.297494
 ...... END OF RHF CALCULATION ......
 STEP CPU TIME =     4.36 TOTAL CPU TIME =          4.4 (      0.1 MIN)
 TOTAL WALL CLOCK TIME=          4.6 SECONDS, CPU UTILIZATION IS    97.12%

     ---------------------------------------------------------------------
     PROPERTIES FOR THE BHHLYP   DFT FUNCTIONAL (RHF  TYPE) DENSITY MATRIX
     ---------------------------------------------------------------------

          -----------------
          ENERGY COMPONENTS
          -----------------

         WAVEFUNCTION NORMALIZATION =       1.0000000000

                ONE ELECTRON ENERGY =    -168.4910160896
                TWO ELECTRON ENERGY =      57.5393259441
           NUCLEAR REPULSION ENERGY =      32.5197397279
                                      ------------------
                       TOTAL ENERGY =     -78.4319504176

 ELECTRON-ELECTRON POTENTIAL ENERGY =      57.5393259441
  NUCLEUS-ELECTRON POTENTIAL ENERGY =    -246.2312059480
   NUCLEUS-NUCLEUS POTENTIAL ENERGY =      32.5197397279
                                      ------------------
             TOTAL POTENTIAL ENERGY =    -156.1721402760
               TOTAL KINETIC ENERGY =      77.7401898584
                 VIRIAL RATIO (V/T) =       2.0088983647

          ---------------------------------------
          MULLIKEN AND LOWDIN POPULATION ANALYSES
          ---------------------------------------

     ATOMIC MULLIKEN POPULATION IN EACH MOLECULAR ORBITAL

                      1          2          3          4          5

                  2.000000   2.000000   2.000000   2.000000   2.000000

    1             0.249556   1.749579   0.877124   0.648777   0.585857
    2             1.749444   0.249716   0.879082   0.652400   0.603750
    3             0.000403   0.000023   0.063239   0.165921   0.205017
    4             0.000403   0.000020   0.058834   0.184558   0.207371
    5             0.000097   0.000328   0.061950   0.169887   0.214918
    6             0.000098   0.000333   0.059771   0.178458   0.183087

                      6          7          8

                  2.000000   2.000000   2.000000

    1             0.744339   0.589470   0.901647
    2             0.744471   0.570452   0.894109
    3             0.148677   0.191564   0.050766
    4             0.106655   0.219962   0.051485
    5             0.134051   0.194681   0.047394
    6             0.121807   0.233871   0.054599

               ----- POPULATIONS IN EACH AO -----
                             MULLIKEN      LOWDIN
              1  C  1  S      1.99363     1.98050
              2  C  1  S      0.68972     0.36681
              3  C  1  X      0.74655     0.66129
              4  C  1  Y      0.69111     0.62858
              5  C  1  Z      0.55330     0.51026
              6  C  1  S      0.60662     0.34613
              7  C  1  X      0.23138     0.38152
              8  C  1  Y      0.35681     0.47316
              9  C  1  Z      0.44860     0.49161
             10  C  1 XX      0.01281     0.18173
             11  C  1 YY      0.00237     0.14559
             12  C  1 ZZ     -0.01318     0.12224
             13  C  1 XY      0.01360     0.02828
             14  C  1 XZ      0.00899     0.01578
             15  C  1 YZ      0.00403     0.00571
             16  C  2  S      1.99363     1.98051
             17  C  2  S      0.69051     0.36709
             18  C  2  X      0.74869     0.66314
             19  C  2  Y      0.68870     0.62677
             20  C  2  Z      0.55227     0.50869
             21  C  2  S      0.60566     0.34577
             22  C  2  X      0.23230     0.38180
             23  C  2  Y      0.35705     0.47213
             24  C  2  Z      0.44596     0.48951
             25  C  2 XX      0.01299     0.18202
             26  C  2 YY      0.00179     0.14487
             27  C  2 ZZ     -0.01304     0.12255
             28  C  2 XY      0.01368     0.02840
             29  C  2 XZ      0.00901     0.01588
             30  C  2 YZ      0.00421     0.00597
             31  H  3  S      0.51400     0.47021
             32  H  3  S      0.31161     0.35812
             33  H  4  S      0.52121     0.47781
             34  H  4  S      0.30808     0.35674
             35  H  5  S      0.51256     0.46806
             36  H  5  S      0.31075     0.35776
             37  H  6  S      0.52211     0.47969
             38  H  6  S      0.30991     0.35732

          ----- MULLIKEN ATOMIC OVERLAP POPULATIONS -----
          (OFF-DIAGONAL ELEMENTS NEED TO BE MULTIPLIED BY 2)

             1           2           3           4           5

    1    5.1227119
    2    0.5712290   5.1205300
    3   -0.0470588   0.3704057   0.5495659
    4   -0.0422252   0.3708378  -0.0484357   0.5484521
    5    0.3704221  -0.0453685   0.0057522  -0.0039289   0.5448849
    6    0.3712702  -0.0442115  -0.0046184   0.0045885  -0.0484569

             6

    6    0.5534517

          TOTAL MULLIKEN AND LOWDIN ATOMIC POPULATIONS
       ATOM         MULL.POP.    CHARGE          LOW.POP.     CHARGE
    1 C             6.346349   -0.346349         6.339176   -0.339176
    2 C             6.343423   -0.343423         6.335108   -0.335108
    3 H             0.825611    0.174389         0.828336    0.171664
    4 H             0.829289    0.170711         0.834548    0.165452
    5 H             0.823305    0.176695         0.825822    0.174178
    6 H             0.832024    0.167976         0.837010    0.162990

          -------------------------------
          BOND ORDER AND VALENCE ANALYSIS     BOND ORDER THRESHOLD=0.050
          -------------------------------

                   BOND                       BOND                       BOND
  ATOM PAIR DIST  ORDER      ATOM PAIR DIST  ORDER      ATOM PAIR DIST  ORDER
    1   2  1.383  1.994        1   5  1.097  0.945        1   6  1.091  0.945
    2   3  1.097  0.945        2   4  1.090  0.944

                       TOTAL       BONDED        FREE
      ATOM            VALENCE     VALENCE     VALENCE
    1 C                 3.856       3.856      -0.000
    2 C                 3.856       3.856       0.000
    3 H                 0.926       0.926      -0.000
    4 H                 0.926       0.926      -0.000
    5 H                 0.927       0.927      -0.000
    6 H                 0.926       0.926      -0.000

          ---------------------
          ELECTROSTATIC MOMENTS
          ---------------------

 POINT   1           X           Y           Z (BOHR)    CHARGE
                -1.306827   -0.011965    0.043794        0.00 (A.U.)
         DX          DY          DZ         /D/  (DEBYE)
    -0.016627   -0.022079    0.321201    0.322388
 ...... END OF PROPERTY EVALUATION ......
 STEP CPU TIME =     0.00 TOTAL CPU TIME =          4.4 (      0.1 MIN)
 TOTAL WALL CLOCK TIME=          4.6 SECONDS, CPU UTILIZATION IS    97.13%

 BEGINNING ONE ELECTRON GRADIENT...
 ..... END OF 1-ELECTRON GRADIENT ......
 STEP CPU TIME =     0.00 TOTAL CPU TIME =          4.4 (      0.1 MIN)
 TOTAL WALL CLOCK TIME=          4.6 SECONDS, CPU UTILIZATION IS    97.13%

          ----------------------
          GRADIENT OF THE ENERGY
          ----------------------
 MEMORY FOR GRID POINT CONTRIBUTIONS TO THE DFT GRADIENT=    232095 WORDS.
 STEP CPU TIME =     0.87 TOTAL CPU TIME =          5.3 (      0.1 MIN)
 TOTAL WALL CLOCK TIME=          5.4 SECONDS, CPU UTILIZATION IS    97.58%

 THE MINIMUM MEMORY REQUIRED FOR THIS RUN IS      80435 WORDS.
 USING    1055955 WORDS FOR 2E- DERIVATIVE INTEGRAL CONTRIBUTIONS.
 THE COARSE/FINE SCHWARZ SCREENINGS SKIPPED           16/         119 BLOCKS.
 THE NUMBER OF GRADIENT INTEGRAL BLOCKS COMPUTED WAS      9047
 ...... END OF 2-ELECTRON GRADIENT ......
 STEP CPU TIME =     0.06 TOTAL CPU TIME =          5.4 (      0.1 MIN)
 TOTAL WALL CLOCK TIME=          5.5 SECONDS, CPU UTILIZATION IS    97.61%

 BEGINNING GEOMETRY SEARCH POINT NSERCH=   0 ...

 COORDINATES OF ALL ATOMS ARE (ANGS)
   ATOM   CHARGE       X              Y              Z
 ------------------------------------------------------------
 C           6.0   0.0000000000   0.0000000000   0.0000000000
 C           6.0  -1.3828517200  -0.0080704600   0.0191996100
 H           1.0  -1.9442658200  -0.7363212300   0.6177907100
 H           1.0  -2.0231985700   0.7688244200  -0.3993437500
 H           1.0   0.5925556500   0.7001367900   0.6012357700
 H           1.0   0.6059493900  -0.8126480700  -0.4037111800

          ********************
          1 ELECTRON INTEGRALS
          ********************
 ...... END OF ONE-ELECTRON INTEGRALS ......
 STEP CPU TIME =     0.00 TOTAL CPU TIME =          5.4 (      0.1 MIN)
 TOTAL WALL CLOCK TIME=          5.5 SECONDS, CPU UTILIZATION IS    97.61%

          --------------------
          2 ELECTRON INTEGRALS
          --------------------

 THE -PK- OPTION IS OFF, THE INTEGRALS ARE NOT IN SUPERMATRIX FORM.
 STORING   15000 INTEGRALS/RECORD ON DISK, USING 12 BYTES/INTEGRAL.
 TWO ELECTRON INTEGRAL EVALUATION REQUIRES   90532 WORDS OF MEMORY.
 SCHWARZ INEQUALITY OVERHEAD:       741 INTEGRALS, T=        0.00
 II,JST,KST,LST =  1  1  1  1 NREC =         1 INTLOC =    1
 II,JST,KST,LST =  2  1  1  1 NREC =         1 INTLOC =    2
 II,JST,KST,LST =  3  1  1  1 NREC =         1 INTLOC =   34
 II,JST,KST,LST =  4  1  1  1 NREC =         1 INTLOC =  214
 II,JST,KST,LST =  5  1  1  1 NREC =         1 INTLOC = 1189
 II,JST,KST,LST =  6  1  1  1 NREC =         1 INTLOC = 3216
 II,JST,KST,LST =  7  1  1  1 NREC =         2 INTLOC =  953
 II,JST,KST,LST =  8  1  1  1 NREC =         3 INTLOC = 8192
 II,JST,KST,LST =  9  1  1  1 NREC =         7 INTLOC = 6081
 II,JST,KST,LST = 10  1  1  1 NREC =         8 INTLOC = 5989
 II,JST,KST,LST = 11  1  1  1 NREC =         9 INTLOC = 7387
 II,JST,KST,LST = 12  1  1  1 NREC =        10 INTLOC =10368
 II,JST,KST,LST = 13  1  1  1 NREC =        12 INTLOC =   36
 II,JST,KST,LST = 14  1  1  1 NREC =        13 INTLOC = 6476
 II,JST,KST,LST = 15  1  1  1 NREC =        14 INTLOC =14822
 II,JST,KST,LST = 16  1  1  1 NREC =        16 INTLOC =10139
 SCHWARZ INEQUALITY TEST SKIPPED          16 INTEGRAL BLOCKS.
 TOTAL NUMBER OF NONZERO TWO-ELECTRON INTEGRALS =              262592
         18 INTEGRAL RECORDS WERE STORED ON DISK FILE  8.
  ...... END OF TWO-ELECTRON INTEGRALS .....
 STEP CPU TIME =     0.02 TOTAL CPU TIME =          5.4 (      0.1 MIN)
 TOTAL WALL CLOCK TIME=          5.5 SECONDS, CPU UTILIZATION IS    97.61%

 -----------------------------------------------------------------------
                    TDDFT CALCULATION FOR SCFTYP=RHF 
                          CODED BY MAHITO CHIBA
 NATIONAL INSTITUTE OF ADVANCED INDUSTRIAL SCIENCE AND TECHNOLOGY, JAPAN
 -----------------------------------------------------------------------
  
 -TDDFT RUNTIME PARAMETERS-
    TRIPLET  = F
    NONEQ    = T
    NSTATE   =                    3
    IROOT    =                    1
    NTRIAL   =                    5
    MAXVEC   =                   50
    ILENG    =                  200
    MAXGRD   =                28998
    NRAD     =                   48
    NLEB     =                  110
 GAS PHASE COMPUTATION
  
 FOR AN EULER-MACLAURIN QUADRATURE USING  48 RADIAL POINTS:
 SMALLEST GAUSSIAN PRIMITIVE EXPONENT=        0.1612777588 OF TYPE -S-
 ON ATOM NUMBER   3 HAS RADIAL NORMALIZATION=  1.000000
  LARGEST GAUSSIAN PRIMITIVE EXPONENT=     3047.5248800000 OF TYPE -S-
 ON ATOM NUMBER   1 HAS RADIAL NORMALIZATION=  1.000000
  
 MEM1  =      196155 MEM2  =        5156 MEMGRID=      306743
 MEMPCM=           0 MEMEFP=           0
 TOTAL MEMORY REQUIRED FOR TD-DFT ITERATIONS IS      508055 WORDS.

 DIAGONAL SHIFT PARAMETER: EDSHFT/A.U.=   0.020

 INITIAL VECTORS / MXVEC                     5 /                  150
 ITERATION #                     1
    CURRENT VECTORS    1 TO   5 (   5 VECTORS)
    STATE NUMBER   1  ENERGY =    4.770137 EV
    STATE NUMBER   2  ENERGY =    8.809403 EV
    STATE NUMBER   3  ENERGY =    8.879348 EV
    MAX ERROR =  2.998E-02 / 1.000E-07
 ITERATION #                     2
    CURRENT VECTORS    6 TO   8 (   3 VECTORS)
    STATE NUMBER   1  ENERGY =    4.091610 EV
    STATE NUMBER   2  ENERGY =    8.716986 EV
    STATE NUMBER   3  ENERGY =    8.759354 EV
    MAX ERROR =  3.789E-04 / 1.000E-07
 ITERATION #                     3
    CURRENT VECTORS    9 TO  11 (   3 VECTORS)
    STATE NUMBER   1  ENERGY =    4.079827 EV
    STATE NUMBER   2  ENERGY =    8.707574 EV
    STATE NUMBER   3  ENERGY =    8.736431 EV
    MAX ERROR =  3.606E-04 / 1.000E-07
 ITERATION #                     4
    CURRENT VECTORS   12 TO  14 (   3 VECTORS)
    STATE NUMBER   1  ENERGY =    4.079670 EV
    STATE NUMBER   2  ENERGY =    8.626081 EV
    STATE NUMBER   3  ENERGY =    8.717540 EV
    MAX ERROR =  9.492E-04 / 1.000E-07
 ITERATION #                     5
    CURRENT VECTORS   15 TO  17 (   3 VECTORS)
    STATE NUMBER   1  ENERGY =    4.079668 EV
    STATE NUMBER   2  ENERGY =    8.581431 EV
    STATE NUMBER   3  ENERGY =    8.716610 EV
    MAX ERROR =  6.467E-05 / 1.000E-07
 ITERATION #                     6
    CURRENT VECTORS   18 TO  19 (   2 VECTORS)
    STATE NUMBER   1  ENERGY =    4.079668 EV
    STATE NUMBER   2  ENERGY =    8.579754 EV
    STATE NUMBER   3  ENERGY =    8.716568 EV
    MAX ERROR =  1.635E-06 / 1.000E-07
 ITERATION #                     7
    CURRENT VECTORS   20 TO  20 (   1 VECTORS)
    STATE NUMBER   1  ENERGY =    4.079668 EV
    STATE NUMBER   2  ENERGY =    8.579676 EV
    STATE NUMBER   3  ENERGY =    8.716567 EV
    MAX ERROR =  2.931E-07 / 1.000E-07
 ITERATION #                     8
    CURRENT VECTORS   21 TO  21 (   1 VECTORS)
    STATE NUMBER   1  ENERGY =    4.079668 EV
    STATE NUMBER   2  ENERGY =    8.579650 EV
    STATE NUMBER   3  ENERGY =    8.716567 EV
    MAX ERROR =  9.977E-08 / 1.000E-07
  
   ---------------------------------  
     R-TDDFT CALCULATION CONVERGED
   ---------------------------------  
 NUMBER OF USED VECTORS / MAX =  21 / 150
 NUMBER OF ITERATIONS   / MAX =   8 / 100
 NUMBER OF SINGLE EXCITATIONS =   240
 NUMBER OF ATOMIC ORBITALS    =  38
 NUMBER OF ELECTRONS          =          15.9995495
  
  DIAGONAL SHIFT PARAMETER HAS BEEN SUBTRACTED.
  TRUE EXCITATION ENERGIES ARE PRINTED BELOW.  

          -------------------
          SINGLET EXCITATIONS
          -------------------

 STATE #   1  ENERGY =    3.535441 EV
 OSCILLATOR STRENGTH =    0.058159
 LAMBDA DIAGNOSTIC   =    0.862 (RYDBERG/CHARGE TRANSFER CHARACTER)
 SYMMETRY OF STATE   =    A   
                 EXCITATION  DE-EXCITATION
     OCC     VIR  AMPLITUDE      AMPLITUDE
      I       A     X(I->A)        Y(A->I)
     ---     ---   --------       --------
      7       9    0.184813       0.000000
      8       9    0.966916       0.000000
      3      10    0.039139       0.000000
      4      11    0.053027       0.000000
      7      12    0.055862       0.000000
      8      12   -0.068815       0.000000
      5      13   -0.042776       0.000000
      6      14    0.070986       0.000000
      8      17    0.035133       0.000000
      6      19    0.049185       0.000000

 STATE #   2  ENERGY =    8.035422 EV
 OSCILLATOR STRENGTH =    0.003037
 LAMBDA DIAGNOSTIC   =    0.647 (RYDBERG/CHARGE TRANSFER CHARACTER)
 SYMMETRY OF STATE   =    A   
                 EXCITATION  DE-EXCITATION
     OCC     VIR  AMPLITUDE      AMPLITUDE
      I       A     X(I->A)        Y(A->I)
     ---     ---   --------       --------
      6       9    0.765558       0.000000
      7       9   -0.338563       0.000000
      8      10   -0.508165       0.000000
      5      11   -0.035542       0.000000
      8      11   -0.075527       0.000000
      6      12    0.056831       0.000000
      8      12   -0.153209       0.000000
      6      17   -0.038418       0.000000

 STATE #   3  ENERGY =    8.172340 EV
 OSCILLATOR STRENGTH =    0.007357
 LAMBDA DIAGNOSTIC   =    0.539 (RYDBERG/CHARGE TRANSFER CHARACTER)
 SYMMETRY OF STATE   =    A   
                 EXCITATION  DE-EXCITATION
     OCC     VIR  AMPLITUDE      AMPLITUDE
      I       A     X(I->A)        Y(A->I)
     ---     ---   --------       --------
      4       9    0.064890       0.000000
      6       9    0.090814       0.000000
      7       9    0.133467       0.000000
      8      10   -0.124954       0.000000
      8      11    0.970118       0.000000
      8      12    0.094858       0.000000

                          SUMMARY OF TDDFT RESULTS

   STATE             ENERGY     EXCITATION  TRANSITION DIPOLE, A.U.  OSCILLATOR
   0 ->             HARTREE          EV         X       Y       Z     STRENGTH
   0  A          -78.4319504176    0.000
   1  A          -78.3020253636    3.535    -0.8176 -0.0476  0.0259    0.0582
   2  A          -78.1366540645    8.035    -0.1064 -0.0635 -0.0089    0.0030
   3  A          -78.1316224446    8.172     0.0304 -0.0169  0.1885    0.0074
  
 TRANSITION        EXCITATION            TRANSITION DIPOLE, A.U.     OSCILLATOR
                       EV              X       Y       Z       DIP    STRENGTH

  1  ->  2           4.500         -0.0083 -0.0355 -0.2260   0.2289    0.0058
  1  ->  3           4.637          0.1441  0.4518 -0.0698   0.4793    0.0261
  2  ->  3           0.137         -1.0793  0.2672 -0.0006   1.1119    0.0041

 SELECTING EXCITED STATE IROOT=   1 AT E=      -78.3020253636
 AS THE STATE OF INTEREST.

 ..... DONE WITH TD-DFT EXCITATION ENERGIES .....
 STEP CPU TIME =     3.63 TOTAL CPU TIME =          9.0 (      0.2 MIN)
 TOTAL WALL CLOCK TIME=          9.2 SECONDS, CPU UTILIZATION IS    98.51%

 -----------------------------------------------------------------------
                   TD-DFT ENERGY GRADIENT CALCULATION
                   CODED BY MAHITO CHIBA (AIST, JAPAN)
 -----------------------------------------------------------------------

    -------------------------
       START Z-VECTOR LOOP
    -------------------------
 INITIAL ERROR =  3.782E-03, MUST CONVERGE TO 1.000E-10
 ITER# 1 ERROR =  2.122E-04
 ITER# 2 ERROR =  2.901E-05
 ITER# 3 ERROR =  3.899E-06
 ITER# 4 ERROR =  3.259E-07
 ITER# 5 ERROR =  9.799E-09
 ITER# 6 ERROR =  5.923E-10
 ITER# 7 ERROR =  4.067E-11
    -------------------------
        Z-VECTOR CONVERGED          
    -------------------------
 MAXIMUM MEMORY DURING TDDFT RESPONSES=    400840 WORDS.

 TDDFT NATURAL ORBITAL OCCUPATION NUMBERS FOR EXCITED STATE    1 ARE
  2.0068 2.0000 2.0000 1.9982 1.9968 1.9944 1.9898 1.0269 0.9662 0.0102
  0.0057 0.0032 0.0024 0.0019 0.0000 0.0000 0.0000 0.0000 0.0000 0.0000
  0.0000 0.0000 0.0000 0.0000 0.0000 0.0000 0.0000-0.0000-0.0000-0.0000
 -0.0000-0.0000-0.0000-0.0000-0.0000-0.0000-0.0000-0.0024
 THERE ARE    15.0129 ELECTRONS IN PRINCIPAL TDDFT NATURAL ORBITALS.
 THERE ARE     0.9871 ELECTRONS IN SECONDARY TDDFT NATURAL ORBITALS.

          ----------------------
          TDDFT NATURAL ORBITALS
          ----------------------

                      1          2          3          4          5

                    2.0068     2.0000     2.0000     1.9982     1.9968

    1  C  1  S   -0.009006   0.468186  -0.875441   0.145311  -0.124234
    2  C  1  S    0.019924   0.020955  -0.036868  -0.273000   0.245770
    3  C  1  X    0.009814  -0.001774   0.000359  -0.065851   0.164629
    4  C  1  Y    0.323358   0.000139   0.000132   0.012342  -0.016131
    5  C  1  Z    0.081948   0.000331  -0.000247  -0.009639   0.018305
    6  C  1  S    0.020310  -0.001160   0.011147  -0.223739   0.238308
    7  C  1  X    0.008445  -0.001944  -0.001433  -0.051242   0.062835
    8  C  1  Y    0.158331   0.000267  -0.000201   0.004674  -0.004819
    9  C  1  Z    0.008367  -0.000016   0.000298  -0.001217   0.009779
   10  C  1 XX   -0.000237  -0.003064   0.005126  -0.008327  -0.003812
   11  C  1 YY   -0.003253  -0.003231   0.005638  -0.001871   0.007072
   12  C  1 ZZ    0.003293  -0.003285   0.005789   0.007935  -0.003071
   13  C  1 XY    0.003608   0.000000   0.000033   0.001906  -0.001664
   14  C  1 XZ    0.011508   0.000014  -0.000025  -0.001559   0.002372
   15  C  1 YZ    0.003606   0.000166  -0.000190  -0.012180   0.014234
   16  C  2  S    0.005271   0.874601   0.469782   0.145170   0.123828
   17  C  2  S   -0.011644   0.037830   0.019078  -0.273050  -0.245612
   18  C  2  X   -0.000600   0.001699  -0.000694   0.065844   0.170227
   19  C  2  Y    0.325365  -0.000214   0.000222  -0.001531  -0.022932
   20  C  2  Z   -0.087680   0.000374  -0.000037  -0.009263  -0.000637
   21  C  2  S   -0.009099  -0.007085  -0.008648  -0.222658  -0.238561
   22  C  2  X    0.002709   0.000857  -0.002284   0.051694   0.064775
   23  C  2  Y    0.160203  -0.000286   0.000106  -0.000217  -0.006137
   24  C  2  Z   -0.011551  -0.000087  -0.000206  -0.000907  -0.001952
   25  C  2 XX    0.001625  -0.005390  -0.002570  -0.008567   0.003660
   26  C  2 YY    0.001320  -0.005819  -0.002908  -0.001540  -0.007015
   27  C  2 ZZ   -0.003058  -0.005942  -0.003003   0.007763   0.003094
   28  C  2 XY   -0.003930  -0.000023  -0.000036   0.002090   0.003009
   29  C  2 XZ    0.011437  -0.000024  -0.000015   0.001251   0.001211
   30  C  2 YZ    0.003130  -0.000249  -0.000068   0.012430   0.014467
   31  H  3  S   -0.154748   0.000303   0.000164  -0.124461  -0.132087
   32  H  3  S   -0.101188   0.002130   0.000906  -0.052936  -0.053923
   33  H  4  S    0.145626  -0.000182   0.000370  -0.125712  -0.157810
   34  H  4  S    0.094232   0.001777   0.001069  -0.051722  -0.073498
   35  H  5  S    0.154190   0.000081  -0.000312  -0.122161   0.141938
   36  H  5  S    0.100266   0.001226  -0.001927  -0.051188   0.061677
   37  H  6  S   -0.142426  -0.000253  -0.000236  -0.128440   0.146195
   38  H  6  S   -0.093937   0.000948  -0.001918  -0.053677   0.064218

                      6          7          8          9         10

                    1.9944     1.9898     1.0269     0.9662     0.0102

    1  C  1  S    0.001842  -0.074082  -0.002798   0.010502  -0.102514
    2  C  1  S   -0.007452   0.144386   0.005956  -0.025632   0.371827
    3  C  1  X   -0.034369  -0.413265   0.037058  -0.008756  -0.733158
    4  C  1  Y    0.152173   0.011549   0.275304  -0.134388   0.004805
    5  C  1  Z    0.305485  -0.034853  -0.241824   0.292627  -0.058662
    6  C  1  S   -0.013019   0.089071   0.016839  -0.033742   1.061621
    7  C  1  X   -0.015624  -0.137675   0.028388  -0.032206  -0.828225
    8  C  1  Y    0.041673   0.010179   0.198482  -0.292528  -0.041650
    9  C  1  Z    0.166360  -0.019159  -0.311220   0.297856   0.007228
   10  C  1 XX    0.000004   0.010586   0.001692   0.000264  -0.059591
   11  C  1 YY   -0.004346  -0.013568  -0.001792  -0.001467   0.015938
   12  C  1 ZZ    0.004481  -0.009956  -0.000343   0.003287  -0.007760
   13  C  1 XY    0.018157   0.001766   0.024282   0.033828  -0.002676
   14  C  1 XZ   -0.000767  -0.001701   0.025428   0.027818   0.012696
   15  C  1 YZ    0.000361  -0.005577   0.005455  -0.000670  -0.022941
   16  C  2  S   -0.007105  -0.074959   0.000405  -0.009137   0.103354
   17  C  2  S    0.011271   0.146048  -0.004003   0.024575  -0.375557
   18  C  2  X    0.033052   0.411979  -0.037667  -0.007232  -0.728310
   19  C  2  Y   -0.144101  -0.003854  -0.252685  -0.179187  -0.016411
   20  C  2  Z    0.305651  -0.039987  -0.189916  -0.326642   0.084879
   21  C  2  S    0.003538   0.092550   0.018446   0.018434  -1.070436
   22  C  2  X    0.014439   0.138343  -0.023410  -0.028800  -0.822057
   23  C  2  Y   -0.038075  -0.006415  -0.152949  -0.325786  -0.044978
   24  C  2  Z    0.166575  -0.018893  -0.259316  -0.340365   0.012716
   25  C  2 XX   -0.000990   0.010301  -0.000921   0.001421   0.060015
   26  C  2 YY   -0.002182  -0.013421  -0.000357   0.000470  -0.015921
   27  C  2 ZZ    0.003249  -0.009939   0.001165  -0.003484   0.007947
   28  C  2 XY    0.018089   0.001899   0.028953  -0.029265   0.001099
   29  C  2 XZ    0.000623  -0.000020  -0.029456   0.023735   0.006150
   30  C  2 YZ   -0.001972   0.005620  -0.005058   0.000441  -0.022326
   31  H  3  S    0.151489  -0.084237   0.135728  -0.110062  -0.012004
   32  H  3  S    0.108328  -0.086748   0.235086  -0.249865  -0.182199
   33  H  4  S   -0.143426  -0.083691  -0.134237   0.089870   0.016389
   34  H  4  S   -0.110475  -0.085000  -0.215796   0.215582  -0.089151
   35  H  5  S    0.144269  -0.087219   0.113168   0.132423   0.010763
   36  H  5  S    0.105373  -0.088409   0.193389   0.285302   0.184658
   37  H  6  S   -0.155093  -0.083028  -0.123144  -0.107543  -0.011801
   38  H  6  S   -0.117731  -0.084907  -0.180654  -0.243813   0.098495

                     11         12         13         14         15

                    0.0057     0.0032     0.0024     0.0019     0.0000

    1  C  1  S   -0.007103   0.085379  -0.005549   0.107178   0.145166
    2  C  1  S    0.008826  -0.631073   0.098579  -0.732177  -1.417452
    3  C  1  X   -0.075038  -0.256276   0.050146  -0.196364   0.465748
    4  C  1  Y    0.350423   0.098401   0.479955  -0.001902   0.293343
    5  C  1  Z    0.521020   0.017745   0.504268  -0.048515  -0.268137
    6  C  1  S    0.090288  -0.495026  -0.017160   0.085866   1.029932
    7  C  1  X   -0.024338  -0.321197  -0.006365  -0.584280  -1.049759
    8  C  1  Y    0.207530   0.059109  -0.335699   0.089814  -0.359514
    9  C  1  Z    0.128724  -0.043661  -0.296715  -0.047636   0.306207
   10  C  1 XX   -0.005199   0.003887   0.010836   0.003368   0.218989
   11  C  1 YY    0.018904   0.051431   0.017604   0.048402   0.877389
   12  C  1 ZZ   -0.019168   0.008582  -0.026041   0.062322   0.695033
   13  C  1 XY    0.026188  -0.000915   0.078332  -0.009861   0.031468
   14  C  1 XZ    0.035597   0.027332   0.183830  -0.008862   0.074069
   15  C  1 YZ   -0.001331  -0.001205   0.002994   0.035624   0.159553
   16  C  2  S    0.013188   0.083733  -0.021034  -0.105618  -0.101322
   17  C  2  S   -0.048043  -0.625463   0.164834   0.710809   1.025929
   18  C  2  X   -0.077175   0.277716  -0.035330  -0.193576   0.444158
   19  C  2  Y    0.339667  -0.119797  -0.473248   0.033469   0.250808
   20  C  2  Z   -0.517918   0.053385   0.510147  -0.023661   0.240944
   21  C  2  S   -0.125647  -0.479283   0.046617  -0.079368  -0.985582
   22  C  2  X   -0.008780   0.328672  -0.084016  -0.578786  -1.093722
   23  C  2  Y    0.196783  -0.041268   0.337688   0.006153  -0.074811
   24  C  2  Z   -0.131439  -0.035124  -0.290109   0.106615  -0.334780
   25  C  2 XX    0.007632   0.002261  -0.003653  -0.006033  -0.047223
   26  C  2 YY   -0.009693   0.052356   0.008512  -0.049478  -0.625582
   27  C  2 ZZ    0.012092   0.008195  -0.019179  -0.057932  -0.553101
   28  C  2 XY   -0.025368   0.003464   0.075055  -0.002538   0.033058
   29  C  2 XZ    0.033229  -0.029028  -0.185445   0.014088   0.082815
   30  C  2 YZ   -0.001983  -0.000290  -0.000778   0.039088   0.115905
   31  H  3  S    0.084575   0.086178  -0.015618  -0.139120  -0.030072
   32  H  3  S    0.694820   0.479230  -0.373852  -0.574859   0.041641
   33  H  4  S   -0.056392   0.091114  -0.051295  -0.128000  -0.061440
   34  H  4  S   -0.596197   0.745238   0.142100  -0.680681  -0.147608
   35  H  5  S   -0.078517   0.089463   0.008217   0.134042  -0.013028
   36  H  5  S   -0.665737   0.515011  -0.288170   0.593501   0.086021
   37  H  6  S    0.064513   0.091037  -0.027670   0.137930  -0.006776
   38  H  6  S    0.645630   0.706512   0.241159   0.675640  -0.032758

                     16         17         18         19         20

                    0.0000     0.0000     0.0000     0.0000     0.0000

    1  C  1  S   -0.203856  -0.004976   0.124162   0.063945   0.037693
    2  C  1  S    1.812881  -0.543062  -0.160714  -0.315875  -0.465645
    3  C  1  X   -0.214314  -0.267490  -0.005798  -0.221622  -0.050252
    4  C  1  Y   -0.040546  -0.182434   0.047468   0.120929   0.150224
    5  C  1  Z    0.020846  -0.215749   0.032654   0.155920   0.077714
    6  C  1  S    0.273222   1.971658  -3.299068   0.057797   0.335736
    7  C  1  X   -0.017346   0.398141   2.194155   0.343549  -0.100355
    8  C  1  Y    0.453303   0.875726  -0.300375  -0.101223   0.104799
    9  C  1  Z    0.100141   0.640411   0.142218  -0.134242   0.345508
   10  C  1 XX   -0.898252   0.002796  -0.072218   0.152658   0.180171
   11  C  1 YY   -0.976391  -0.176346   0.526679   0.593150   0.122717
   12  C  1 ZZ   -0.676901   0.058317   0.425703   0.221727   0.302714
   13  C  1 XY   -0.219249   0.007526  -0.219340  -0.161193   0.378538
   14  C  1 XZ    0.103372   0.321593  -0.441373   0.242192   0.114051
   15  C  1 YZ   -0.210834  -0.103759  -0.103937   0.535911  -0.034576
   16  C  2  S   -0.234231   0.029488  -0.184300   0.053653   0.004805
   17  C  2  S    2.270336  -0.782269  -0.027187  -0.274107   0.236805
   18  C  2  X    0.325165   0.407310   0.083204   0.194079   0.005909
   19  C  2  Y    0.047713   0.044092  -0.192863  -0.266992   0.210340
   20  C  2  Z   -0.010465   0.075918  -0.036905  -0.024039  -0.050719
   21  C  2  S   -0.405872   1.244244   4.568690   0.178193  -0.402709
   22  C  2  X   -0.356887  -1.303600   1.541193  -0.588840  -0.186797
   23  C  2  Y   -0.429073  -0.267807   0.576206   0.237112   0.111103
   24  C  2  Z    0.079600  -0.048640  -0.377440   0.049255  -0.400114
   25  C  2 XX   -0.938142   0.161000   0.145780  -0.200963  -0.075669
   26  C  2 YY   -1.178756   0.382253  -0.638093   0.109779  -0.007321
   27  C  2 ZZ   -0.842309  -0.125673  -0.826554   0.601456  -0.084182
   28  C  2 XY   -0.230679  -0.337792  -0.061453  -0.200179  -0.348551
   29  C  2 XZ   -0.138537  -0.018925  -0.389393  -0.188350   0.239351
   30  C  2 YZ    0.210145  -0.279505  -0.329909  -0.129708   0.022010
   31  H  3  S    0.146758   0.055221  -0.233358  -0.316207   0.936424
   32  H  3  S   -0.092882  -0.907330   0.055466   0.202553  -0.555636
   33  H  4  S    0.174644   0.098920  -0.335226   0.220708  -0.584724
   34  H  4  S    0.258215  -0.985548  -0.553331  -0.581317   0.357346
   35  H  5  S    0.107569   0.341535   0.019447  -0.684996  -0.771970
   36  H  5  S   -0.122310  -1.577213   0.040194   0.539186   0.441399
   37  H  6  S    0.249763   0.188619  -0.011616   0.059702   0.530757
   38  H  6  S    0.176431   0.025140  -0.302792  -0.423610  -0.307260

                     21         22         23         24         25

                    0.0000     0.0000     0.0000     0.0000     0.0000

    1  C  1  S    0.098080   0.060926  -0.019838   0.075683  -0.044292
    2  C  1  S   -0.530087  -0.672517  -0.159694  -1.071205   0.169788
    3  C  1  X   -0.074821  -0.320952  -0.127094  -0.538560   0.101047
    4  C  1  Y   -0.021554  -0.113685   0.435756  -0.015252  -0.085817
    5  C  1  Z    0.216627  -0.162452   0.158237  -0.065726   0.153397
    6  C  1  S    0.223770   1.144211   0.328306   0.357195   0.751028
    7  C  1  X   -0.122868  -0.928490   0.657242   1.904851  -0.440000
    8  C  1  Y   -0.032783   0.462563  -0.913082  -0.007950  -0.455354
    9  C  1  Z   -0.316253   0.625069  -0.993774   0.258438  -0.563951
   10  C  1 XX   -0.251232   0.864683   0.012978   0.364014  -0.070521
   11  C  1 YY    0.371186   0.012553  -0.157620   0.265399  -0.013074
   12  C  1 ZZ    0.549060   0.347012  -0.024183   0.298249  -0.529656
   13  C  1 XY   -0.212684   0.298270  -0.191154  -0.006815  -0.023775
   14  C  1 XZ   -0.146899  -0.109246   0.433694   0.112696   0.252119
   15  C  1 YZ   -0.529448   0.059200  -0.028972   0.216851  -0.153019
   16  C  2  S    0.133874  -0.121714  -0.050619  -0.048280  -0.070824
   17  C  2  S   -0.349092   1.488970   0.187449   0.747391   0.182857
   18  C  2  X    0.147687  -0.415031  -0.090341  -0.473010  -0.029366
[...]
    STATE NUMBER   1  ENERGY =    0.519463 EV
    STATE NUMBER   2  ENERGY =    7.093434 EV
    STATE NUMBER   3  ENERGY =    7.163561 EV
    MAX ERROR =  5.201E-04 / 1.000E-07
 ITERATION #                     3
    CURRENT VECTORS    9 TO  11 (   3 VECTORS)
    STATE NUMBER   1  ENERGY =    0.514155 EV
    STATE NUMBER   2  ENERGY =    7.088272 EV
    STATE NUMBER   3  ENERGY =    7.142161 EV
    MAX ERROR =  4.227E-05 / 1.000E-07
 ITERATION #                     4
    CURRENT VECTORS   12 TO  14 (   3 VECTORS)
    STATE NUMBER   1  ENERGY =    0.514110 EV
    STATE NUMBER   2  ENERGY =    7.086755 EV
    STATE NUMBER   3  ENERGY =    7.138207 EV
    MAX ERROR =  1.851E-05 / 1.000E-07
 ITERATION #                     5
    CURRENT VECTORS   15 TO  16 (   2 VECTORS)
    STATE NUMBER   1  ENERGY =    0.514110 EV
    STATE NUMBER   2  ENERGY =    7.086521 EV
    STATE NUMBER   3  ENERGY =    7.137669 EV
    MAX ERROR =  1.229E-06 / 1.000E-07
 ITERATION #                     6
    CURRENT VECTORS   17 TO  18 (   2 VECTORS)
    STATE NUMBER   1  ENERGY =    0.514110 EV
    STATE NUMBER   2  ENERGY =    7.086512 EV
    STATE NUMBER   3  ENERGY =    7.137630 EV
    MAX ERROR =  3.885E-08 / 1.000E-07
  
   ---------------------------------  
     R-TDDFT CALCULATION CONVERGED
   ---------------------------------  
 NUMBER OF USED VECTORS / MAX =  18 / 150
 NUMBER OF ITERATIONS   / MAX =   6 / 100
 NUMBER OF SINGLE EXCITATIONS =   240
 NUMBER OF ATOMIC ORBITALS    =  38
 NUMBER OF ELECTRONS          =          16.0012649
  
  DIAGONAL SHIFT PARAMETER HAS BEEN SUBTRACTED.
  TRUE EXCITATION ENERGIES ARE PRINTED BELOW.  

          -------------------
          SINGLET EXCITATIONS
          -------------------

 STATE #   1  ENERGY =   -0.030118 EV
 OSCILLATOR STRENGTH =   -0.000138
 LAMBDA DIAGNOSTIC   =    0.759 (RYDBERG/CHARGE TRANSFER CHARACTER)
 SYMMETRY OF STATE   =    A   
                 EXCITATION  DE-EXCITATION
     OCC     VIR  AMPLITUDE      AMPLITUDE
      I       A     X(I->A)        Y(A->I)
     ---     ---   --------       --------
      6       9   -0.056588       0.000000
      7       9    0.072498       0.000000
      8       9    0.989130       0.000000
      8      11   -0.035558       0.000000
      6      12   -0.031336       0.000000
      7      13    0.031122       0.000000

 STATE #   2  ENERGY =    6.542284 EV
 OSCILLATOR STRENGTH =    0.062434
 LAMBDA DIAGNOSTIC   =    0.537 (RYDBERG/CHARGE TRANSFER CHARACTER)
 SYMMETRY OF STATE   =    A   
                 EXCITATION  DE-EXCITATION
     OCC     VIR  AMPLITUDE      AMPLITUDE
      I       A     X(I->A)        Y(A->I)
     ---     ---   --------       --------
      4       9    0.050634       0.000000
      5       9   -0.076745       0.000000
      6       9    0.100147       0.000000
      7       9   -0.049253       0.000000
      7      10   -0.031338       0.000000
      8      10    0.981153       0.000000
      8      11   -0.103358       0.000000

 STATE #   3  ENERGY =    6.593402 EV
 OSCILLATOR STRENGTH =    0.002729
 LAMBDA DIAGNOSTIC   =    0.667 (RYDBERG/CHARGE TRANSFER CHARACTER)
 SYMMETRY OF STATE   =    A   
                 EXCITATION  DE-EXCITATION
     OCC     VIR  AMPLITUDE      AMPLITUDE
      I       A     X(I->A)        Y(A->I)
     ---     ---   --------       --------
      4       9   -0.052307       0.000000
      6       9    0.874652       0.000000
      7       9    0.402886       0.000000
      8      10   -0.081205       0.000000
      8      11   -0.187385       0.000000
      8      12   -0.113685       0.000000
      6      13    0.030133       0.000000
      7      13    0.044257       0.000000
      8      13   -0.073165       0.000000
      6      16    0.047301       0.000000

                          SUMMARY OF TDDFT RESULTS

   STATE             ENERGY     EXCITATION  TRANSITION DIPOLE, A.U.  OSCILLATOR
   0 ->             HARTREE          EV         X       Y       Z     STRENGTH
   0  A          -78.3072112110    0.000
   1  A          -78.3083180335   -0.030    -0.3559  0.2192 -0.1095   -0.0001
   2  A          -78.0667866883    6.542     0.0272 -0.4240  0.4571    0.0624
   3  A          -78.0649081179    6.593    -0.0704  0.0290 -0.1054    0.0027
  
 TRANSITION        EXCITATION            TRANSITION DIPOLE, A.U.     OSCILLATOR
                       EV              X       Y       Z       DIP    STRENGTH

  1  ->  2           6.572         -0.3272  0.3566 -0.2340   0.5376    0.0465
  1  ->  3           6.624         -1.1512  0.1881  0.0063   1.1665    0.2208
  2  ->  3           0.051          0.3144  0.1009 -0.1624   0.3680    0.0002

 SELECTING EXCITED STATE IROOT=   1 AT E=      -78.3083180335
 AS THE STATE OF INTEREST.

 ..... DONE WITH TD-DFT EXCITATION ENERGIES .....
 STEP CPU TIME =     3.28 TOTAL CPU TIME =        460.3 (      7.7 MIN)
 TOTAL WALL CLOCK TIME=        469.2 SECONDS, CPU UTILIZATION IS    98.11%

 -----------------------------------------------------------------------
                   TD-DFT ENERGY GRADIENT CALCULATION
                   CODED BY MAHITO CHIBA (AIST, JAPAN)
 -----------------------------------------------------------------------

    -------------------------
       START Z-VECTOR LOOP
    -------------------------
 INITIAL ERROR =  5.572E-02, MUST CONVERGE TO 1.000E-10
 ITER# 1 ERROR =  3.540E-02
 ITER# 2 ERROR =  3.866E-02
 ITER# 3 ERROR =  5.637E-03
 ITER# 4 ERROR =  3.174E-04
 ITER# 5 ERROR =  4.052E-05
 ITER# 6 ERROR =  3.037E-06
 ITER# 7 ERROR =  1.050E-07
 ITER# 8 ERROR =  3.067E-09
 ITER# 9 ERROR =  1.567E-10
 ITER#10 ERROR =  7.187E-12
    -------------------------
        Z-VECTOR CONVERGED          
    -------------------------
 MAXIMUM MEMORY DURING TDDFT RESPONSES=    401000 WORDS.
 ..... DONE WITH TD-DFT EXCITED STATE RESPONSE AND DENSITY MATRIX .....
 STEP CPU TIME =     3.83 TOTAL CPU TIME =        464.1 (      7.7 MIN)
 TOTAL WALL CLOCK TIME=        473.1 SECONDS, CPU UTILIZATION IS    98.10%
 ..... END OF 1-ELECTRON GRADIENT ......
 STEP CPU TIME =     0.00 TOTAL CPU TIME =        464.1 (      7.7 MIN)
 TOTAL WALL CLOCK TIME=        473.1 SECONDS, CPU UTILIZATION IS    98.10%
 MEMORY FOR GRID POINT CONTRIBUTIONS TO THE TD-DFT GRADIENT=   2095105 WORDS.
 STEP CPU TIME =     5.42 TOTAL CPU TIME =        469.6 (      7.8 MIN)
 TOTAL WALL CLOCK TIME=        479.1 SECONDS, CPU UTILIZATION IS    98.01%
 ...... END OF 2-ELECTRON GRADIENT ......
 STEP CPU TIME =     0.10 TOTAL CPU TIME =        469.7 (      7.8 MIN)
 TOTAL WALL CLOCK TIME=        479.2 SECONDS, CPU UTILIZATION IS    98.01%

 ENERGY GAP=   -0.0011068225

 GRADIENT FOR STATE IXROOT/IXSTAT=     0    0

 UNITS ARE HARTREE/BOHR    E'X               E'Y               E'Z 
    1 C               -0.138965075       0.012681891      -0.009075130
    2 C                0.177663656      -0.008672515       0.009980470
    3 H               -0.010123097       0.039563827       0.035702887
    4 H               -0.028311772      -0.045033496      -0.040956095
    5 H                0.001376186      -0.055940478       0.028527113
    6 H               -0.001639899       0.057400770      -0.024179245

 GRADIENT FOR STATE IXROOT/IXSTAT=     1    1

 UNITS ARE HARTREE/BOHR    E'X               E'Y               E'Z 
    1 C               -0.016970040       0.107540557      -0.070737406
    2 C               -0.049621523       0.028353274       0.045664721
    3 H                0.021224289      -0.074180990      -0.092558965
    4 H                0.013275438       0.039120054       0.086565979
    5 H               -0.002307185       0.033133705      -0.039591636
    6 H                0.034399020      -0.133966600       0.070657307

 GRADIENT DIFFERENCE VECTOR (X)

 UNITS ARE HARTREE/BOHR    E'X               E'Y               E'Z 
    1 C                0.121995035       0.094858666      -0.061662276
    2 C               -0.227285179       0.037025788       0.035684250
    3 H                0.031347386      -0.113744817      -0.128261852
    4 H                0.041587210       0.084153550       0.127522074
    5 H               -0.003683371       0.089074183      -0.068118748
    6 H                0.036038919      -0.191367370       0.094836552

 ESTIMATED Y

                           E_X               E_Y               E_Z 
    1 C               -0.528424804      -0.054609249       0.167662253
    2 C                0.498826985       0.035469268       0.133769152
    3 H               -0.035071893      -0.202910257      -0.319887429
    4 H                0.038421433       0.158716373       0.177194059
    5 H                0.031268499       0.222289929      -0.318145801
    6 H               -0.005020219      -0.158956064       0.159407766

 ORTHO-NORMALIZED Y

                           E_X               E_Y               E_Z 
    1 C               -0.532862865      -0.055067894       0.169070391
    2 C                0.503016463       0.035767163       0.134892633
    3 H               -0.035366450      -0.204614431      -0.322574055
    4 H                0.038744121       0.160049378       0.178682252
    5 H                0.031531112       0.224156866      -0.320817800
    6 H               -0.005062382      -0.160291082       0.160746578

 OVERLAP BETWEEN       NORMALIZED X AND Y=  -0.0000000000
 OVERLAP BETWEEN ORTHO-NORMALIZED X AND Y=  -0.0000000000

 MEAN GRADIENT VECTOR

 UNITS ARE HARTREE/BOHR    E'X               E'Y               E'Z 
    1 C               -0.077967558       0.060111224      -0.039906268
    2 C                0.064021066       0.009840380       0.027822595
    3 H                0.005550596      -0.017308581      -0.028428039
    4 H               -0.007518167      -0.002956721       0.022804942
    5 H               -0.000465499      -0.011403386      -0.005532262
    6 H                0.016379561      -0.038282915       0.023239031

 GRADIENT INSIDE BRANCHING PLANE

                           E_X               E_Y               E_Z 
    1 C               -0.000608542      -0.000473179       0.000307587
    2 C                0.001133757      -0.000184694      -0.000178002
    3 H               -0.000156369       0.000567388       0.000639803
    4 H               -0.000207448      -0.000419779      -0.000636113
    5 H                0.000018374      -0.000444325       0.000339794
    6 H               -0.000179771       0.000954589      -0.000473069

 GRADIENT INSIDE INTERSECTION SPACE

 UNITS ARE HARTREE/BOHR    E'X               E'Y               E'Z 
    1 C               -0.030521250       0.063729748      -0.054601810
    2 C                0.020983628       0.005949421       0.014771948
    3 H                0.008336472       0.003418732       0.003451022
    4 H               -0.011756088      -0.019094373       0.004264177
    5 H               -0.003328264      -0.033555301       0.025244722
    6 H                0.016285502      -0.020448227       0.006869942

 PROJECTED GRADIENT:= F + P*G
 UNIT=HARTREE/BOHR MAY BE INAPPROPRIATE UNLESS F=0.

 UNITS ARE HARTREE/BOHR    E'X               E'Y               E'Z 
    1 C               -0.031129792       0.063256568      -0.054294223
    2 C                0.022117384       0.005764727       0.014593946
    3 H                0.008180103       0.003986121       0.004090825
    4 H               -0.011963536      -0.019514152       0.003628064
    5 H               -0.003309890      -0.033999626       0.025584516
    6 H                0.016105731      -0.019493638       0.006396873

          NSERCH= 25     ENERGY=     -78.3083180

                                 -----------------------
                                 GRADIENT (HARTREE/BOHR)
                                 -----------------------
        ATOM     ZNUC       DE/DX         DE/DY         DE/DZ
 --------------------------------------------------------------
    1  C            6.0    -0.0311298     0.0632566    -0.0542942
    2  C            6.0     0.0221174     0.0057647     0.0145939
    3  H            1.0     0.0081801     0.0039861     0.0040908
    4  H            1.0    -0.0119635    -0.0195142     0.0036281
    5  H            1.0    -0.0033099    -0.0339996     0.0255845
    6  H            1.0     0.0161057    -0.0194936     0.0063969

          MAXIMUM GRADIENT = 0.0632566    RMS GRADIENT = 0.0255953

 NSERCH:  25  E=      -78.3083180335  GRAD. MAX=  0.0632566  R.M.S.=  0.0255953

          HESSIAN UPDATED USING THE BFGS FORMULA
          WARNING! HEREDITARY POSITIVE DEFINITENESS ENDANGERED
 LOCAL CURVATURE   1 OF THE APPROXIMATE HESSIAN HAS EIGENVALUE=   -2.297777
 *** THIS MODE HAS AN INCORRECT CURVATURE ***
 THE COMPONENTS OF THIS MODE FOLLOWS:
        0.443102      -0.271486       0.513163      -0.053592      -0.097298
       -0.046744      -0.363659      -0.102223      -0.071935      -0.173793
        0.156813      -0.084234       0.251276       0.110264      -0.337668
       -0.103335       0.203930       0.027417
 LOCAL CURVATURE   2 OF THE APPROXIMATE HESSIAN HAS EIGENVALUE=   -0.478058
 *** THIS MODE HAS AN INCORRECT CURVATURE ***
 THE COMPONENTS OF THIS MODE FOLLOWS:
       -0.066901       0.300292       0.275361       0.061099      -0.351527
       -0.369333      -0.074355      -0.084838       0.325707      -0.050335
        0.370403       0.009038      -0.195605       0.047049       0.041190
        0.326097      -0.281380      -0.281963
             ACTUAL ENERGY CHANGE WAS  -0.0163846500
          PREDICTED ENERGY CHANGE WAS  -0.0150788043 RATIO=  1.087
          TRIM/QA LAMBDA FOR NON-TS MODES =  -2.59907708
          TRIM/QA STEP HAS LENGTH         =   0.282843
          RADIUS OF STEP TAKEN=   0.28284  CURRENT TRUST RADIUS=   0.28284

 BEGINNING GEOMETRY SEARCH POINT NSERCH=  26 ...

 COORDINATES OF ALL ATOMS ARE (ANGS)
   ATOM   CHARGE       X              Y              Z
 ------------------------------------------------------------
 C           6.0   0.0346655314  -0.2143767722   0.2986674139
 C           6.0  -1.2979386915  -0.0020394763   0.1001093582
 H           1.0  -2.1024219163  -0.5593681570   0.7034544496
 H           1.0  -2.0195586091   0.5949516792  -0.6200187373
 H           1.0   0.6795091862   0.5770476384   0.5706535044
 H           1.0   0.5539334293  -0.4842934621  -0.6176948289

          INTERNUCLEAR DISTANCES (ANGS.)
          ------------------------------

                1 C          2 C          3 H          4 H          5 H     

   1 C       0.0000000    1.3639452 *  2.2022748 *  2.3914083 *  1.0564811 *
   2 C       1.3639452 *  0.0000000    1.1497103 *  1.1814052 *  2.1135406 *
   3 H       2.2022748 *  1.1497103 *  0.0000000    1.7580961 *  3.0080255  
   4 H       2.3914083 *  1.1814052 *  1.7580961 *  0.0000000    2.9500827 *
   5 H       1.0564811 *  2.1135406 *  3.0080255    2.9500827 *  0.0000000  
   6 H       1.0872966 *  2.0438303 *  2.9677088 *  2.7906338 *  1.5982447 *

                6 H     

   1 C       1.0872966 *
   2 C       2.0438303 *
   3 H       2.9677088 *
   4 H       2.7906338 *
   5 H       1.5982447 *
   6 H       0.0000000  

  * ... LESS THAN  3.000

 ...... END OF ONE-ELECTRON INTEGRALS ......
 STEP CPU TIME =     0.00 TOTAL CPU TIME =        469.7 (      7.8 MIN)
 TOTAL WALL CLOCK TIME=        479.2 SECONDS, CPU UTILIZATION IS    98.01%
 TOTAL NUMBER OF NONZERO TWO-ELECTRON INTEGRALS =              262733
         18 INTEGRAL RECORDS WERE STORED ON DISK FILE  8.
  ...... END OF TWO-ELECTRON INTEGRALS .....
 STEP CPU TIME =     0.02 TOTAL CPU TIME =        469.7 (      7.8 MIN)
 TOTAL WALL CLOCK TIME=        479.2 SECONDS, CPU UTILIZATION IS    98.01%

          --------------------------
            R-BHHLYP SCF CALCULATION
          --------------------------
         DENSITY MATRIX CONVERGENCE THRESHOLD=  1.00E-06
     COARSE -> FINE DFT GRID SWITCH THRESHOLD=  3.00E-04 (SWITCH IN $DFT)
                   HF -> DFT SWITCH THRESHOLD=  5.00E-03 (SWOFF IN $DFT)

 DFT CODE IS SWITCHING FROM THE FINE GRID NRAD= 96,  NLEB=  302
                      TO THE COARSE GRID NRAD0= 24, NLEB0=  110

 ITER EX DEM     TOTAL ENERGY        E CHANGE  DENSITY CHANGE    DIIS ERROR
          * * *   INITIATING DIIS PROCEDURE   * * *
   1  0  0      -78.3130907570   -78.3130907570   0.033624596   0.026228638
   2  1  0      -78.3202676087    -0.0071768516   0.018602973   0.013426952
   3  2  0      -78.3208300608    -0.0005624521   0.012807698   0.009880979
   4  3  0      -78.3212408136    -0.0004107528   0.002397016   0.004272735
   5  4  0      -78.3213255940    -0.0000847804   0.004203465   0.002480921
   6  5  0      -78.3214234113    -0.0000978173   0.006744726   0.001877955
   7  6  0      -78.3215248100    -0.0001013987   0.010955226   0.001084923
   8  7  0      -78.3216029278    -0.0000781178   0.005812412   0.000447877
   9  8  0      -78.3216191418    -0.0000162140   0.004518783   0.000214727
  10  9  0      -78.3216248634    -0.0000057216   0.003098149   0.000098852
  11 10  0      -78.3216267006    -0.0000018372   0.002057563   0.000052732
  12 11  0      -78.3216274077    -0.0000007071   0.002756776   0.000036899
  13 12  0      -78.3216281581    -0.0000007504   0.000885410   0.000036945
  14 13  0      -78.3216284284    -0.0000002703   0.006651964   0.000042069
  15 14  0      -78.3216262548     0.0000021735   0.004839459   0.000065183
  16 15  0      -78.3216219119     0.0000043430   0.008171175   0.000173239
  17 16  0      -78.3216274979    -0.0000055860   0.000443924   0.000035511
  18 17  0      -78.3216273707     0.0000001272   0.000564294   0.000037254
  19 18  0      -78.3216275314    -0.0000001606   0.000348468   0.000035021
  20 19  0      -78.3216276264    -0.0000000950   0.001421899   0.000034162
  21 20  0      -78.3216272154     0.0000004110   0.002916539   0.000040104
  22 21  0      -78.3216259616     0.0000012538   0.006729537   0.000072929
  23 22  0      -78.3216282830    -0.0000023215   0.001033173   0.000038821
  24 23  0      -78.3216279883     0.0000002948   0.001173842   0.000034586
  25 24  0      -78.3216276755     0.0000003128   0.001617350   0.000033965
  26 25  0      -78.3216272114     0.0000004641   0.000421265   0.000040301
  27 26  0      -78.3216273411    -0.0000001296   0.001114738   0.000037837
  28 27  0      -78.3216276537    -0.0000003127   0.000552726   0.000034086
  29 28  0      -78.3216278006    -0.0000001468   0.000105355   0.000033709
 DFT CODE IS SWITCHING BACK TO THE FINE GRID
          * * *   INITIATING DIIS PROCEDURE   * * *
  30 29  0      -78.3212987510     0.0003290495   0.000574113   0.000564718

 SCF IS UNCONVERGED, TOO MANY ITERATIONS
     TIME TO FORM FOCK OPERATORS=       2.2 SECONDS (       0.1 SEC/ITER)
     TIME TO SOLVE SCF EQUATIONS=       0.0 SECONDS (       0.0 SEC/ITER)

 FINAL R-BHHLYP ENERGY IS        0.0000000000 AFTER  30 ITERATIONS
 DFT EXCHANGE + CORRELATION ENERGY =        -6.3338617147
 TOTAL ELECTRON NUMBER             =        15.9999873399
 ...... END OF RHF CALCULATION ......
 STEP CPU TIME =     2.22 TOTAL CPU TIME =        471.9 (      7.9 MIN)
 TOTAL WALL CLOCK TIME=        481.5 SECONDS, CPU UTILIZATION IS    98.02%

           ***** FAILURE TO LOCATE STATIONARY POINT, SCF HAS NOT CONVERGED
     UPDATED HESSIAN, GEOMETRY, AND VECTORS WILL BE PUNCHED FOR RESTART
 EXECUTION OF GAMESS TERMINATED -ABNORMALLY- AT 20:13:10 10-MAR-2022    
              2100127  WORDS OF DYNAMIC MEMORY USED
 STEP CPU TIME =     0.00 TOTAL CPU TIME =        471.9 (      7.9 MIN)
 TOTAL WALL CLOCK TIME=        481.5 SECONDS, CPU UTILIZATION IS    98.02%
 DDI Process 0: error code 911
 ddikick.x: application process 0 quit unexpectedly.
 ddikick.x: Fatal error detected.
 The error is most likely to be in the application, so check for
 input errors, disk space, memory needs, application bugs, etc.
 ddikick.x will now clean up all processes, and exit...
 ddikick.x: Sending kill signal to DDI processes.
 ddikick.x: Execution terminated due to error(s).
