
 Distributed Data Interface kickoff program.
 Initiating 1 compute processes on 1 nodes to run the following command:
 /usr/local/gamess/gamess.00.x /home/webmo/webmo/yamnor/83/input 

          *******************************************************
          *                                                     *
          *      GAMESS VERSION = 30 SEP 2021 (R2 Patch 1)      *
          *                                                     *
          *              doi.org/10.1063/5.0005188              *
          *                                                     *
          **************** 64 BIT LINUX VERSION *****************

  GAMESS HAS BEEN MADE POSSIBLE WITH IMPORTANT CONTRIBUTIONS FROM
  THE FOLLOWING INDIVIDUALS (IN ALPHABETICAL ORDER):

     IVANA ADAMOVIC, CHRISTINE AIKENS, TOMOKO AKAMA,
     YURI ALEXEEV, YURIKO AOKI, POOJA ARORA, TOSHIO ASADA,
     ANDREY ASADCHEV, KIM K. BALDRIDGE, PRADIPTA BANDYOPADHYAY,
     TAYLOR A. BARNES, MARIA BARYSZ, ROB BELL,
     JONATHAN BENTZ, COLLEEN BERTONI,
     JERRY A. BOATZ, BRETT BODE, KURT BRORSEN, KURT R. BRORSEN,
     LAIMUTIS BYTAUTAS, CALEB CARLIN, LAURA CARRINGTON,
     GALINA CHABAN, BENOIT CHAMPAGNE, WEI CHEN, MAHITO CHIBA,
     DAN CHIPMAN, CHEOL HO CHOI, TANNER CULPITT,
     DIPAYAN DATTA, PAUL DAY, ALBERT DEFUSCO,
     NUWAN DESILVA, J. EMILIANO DEUSTUA,
     TIM DUDLEY, MICHEL DUPUIS, STEVEN T. ELBERT,
     DMITRI FEDOROV, ALEX FINDLATER, GRAHAM FLETCHER,
     MARK FREITAG, CHRISTIAN FRIEDL, DAVID GARMER,
     IGOR S. GERASIMOV, KURT GLAESEMANN, MARK S. GORDON,
     JEFFREY GOUR, FENG LONG GU, EMILIE B. GUIDEZ,
     ANASTASIA GUNINA, SHARON HAMMES-SCHIFFER, MASATAKE HARUTA,
     KIMIHIKO HIRAO, YASUHIRO IKABATA, TZVETELIN IORDANOV,
     STEPHAN IRLE, KAZUYA ISHIMURA, JOE IVANIC, FRANK JENSEN,
     JAN H. JENSEN, VISVALDAS KAIRYS, MUNEAKI KAMIYA,
     MICHIO KATOUDA, NAOAKI KAWAKAMI, DAN KEMP, BERNARD KIRTMAN,
     KAZUO KITAURA, MARIUSZ KLOBUKOWSKI, MASATO KOBAYASHI,
     PRAKASHAN KORAMBATH, JACEK KORCHOWIEC, SHIRO KOSEKI,
     KAROL KOWALSKI, JIMMY KROMANN, STANISLAW KUCHARSKI,
     HENRY KURTZ, SAROM SOK LEANG, HUI LI, SHUHUA LI, WEI LI,
     JESSE LUTZ, ALEKSANDR O. LYKHIN, MARCIN MAKOWSKI,
     JOANI MATO, NIKITA MATSUNAGA, BENEDETTA MENNUCCI,
     GRANT MERRILL, NORIYUKI MINEZAWA, VLADIMIR MIRONOV,
     EISAKU MIYOSHI, JOHN A. MONTGOMERY JR., HIROTOSHI MORI,
     JONATHAN MULLIN, MONIKA MUSIAL, SHIGERU NAGASE,
     TAKESHI NAGATA, HIROMI NAKAI, TAKAHITO NAKAJIMA,
     YUYA NAKAJIMA, HARUYUKI NAKANO, HIROYA NAKATA, SEAN NEDD,
     HEATHER NETZLOFF, KIET A. NGUYEN, YOSHIO NISHIMOTO,
     BOSILJKA NJEGIC, RYAN OLSON, MIKE PAK, ROBERTO PEVERATI,
     BUU PHAM, PIOTR PIECUCH, ANNA POMOGAEVA, DAVID POOLE,
     SPENCER PRUITT, OLIVIER QUINET, LUKE ROSKOP,
     KLAUS RUEDENBERG, ANDREW SAND, TOSAPORN SATTASATHUCHANA,
     NOZOMI SAWADA, MICHAEL W. SCHMIDT, PATRICK E. SCHNEIDER,
     JUNJI SEINO, PRACHI SHARMA, JUN SHEN, JIM SHOEMAKER,
     YINAN SHU, DEJUN SI, JONATHAN SKONE, LYUDMILA SLIPCHENKO,
     TONY SMITH, JIE SONG, MARK SPACKMAN, CASPER STEINMANN,
     WALT STEVENS, PEIFENG SU, SHUJUN SU, CHET SWALINA,
     TETSUYA TAKETSUGU, ZHEN TAO, NANDUN THELLAMUREGE
     SEIKEN TOKURA, JACOPO TOMASI, TSUGUKI TOUMA, TAKAO TSUNEDA,
     HIROAKI UMEDA, JORGE LUIS GALVEZ VALLEJO, YALI WANG,
     SIMON WEBB, AARON WEST, THERESA L. WINDUS, MARTA WLOCH,
     PENG XU, KIYOSHI YAGI, SUSUMU YANAGISAWA, YANG YANG,
     SOOHAENG YOO, TAKESHI YOSHIKAWA, FEDERICO ZAHARIEV,
     TOBY ZENG

  WHO ARE SUPPORTED BY THEIR INSTITUTION/UNIVERSITY/COMPANY/GROUP
  (IN ALPHABETICAL ORDER):

     EP ANALYTICS, FACULTES UNIVERSITAIRES NOTRE-DAME DE LA PAIX,
     INSTITUTE FOR MOLECULAR SCIENCE, IOWA STATE UNIVERSITY,
     JACKSON STATE UNIVERSITY, JOHANNES KEPLER UNIVERSITY LINZ,
     KYUSHU UNIVERSITY, MICHIGAN STATE UNIVERSITY,
     MIE UNIVERSITY, THE MOLECULAR SCIENCES SOFTWARE INSTITUTE,
     MOSCOW STATE UNIVERSITY,
     N. COPERNICUS UNIVERSITY, NAGOYA UNIVERSITY,
     NANJING UNIVERSITY, NAT. INST. OF ADVANCED INDUSTRIAL
     SCIENCE AND TECHNOLOGY, NATIONAL INST. OF STANDARDS AND
     TECHNOLOGY, NESMEYANOV INSTITUTE OF ORGANOELEMENT COMPOUNDS
     OF RUSSIAN ACADEMY OF SCIENCES, OSAKA PREFECTURE UNIVERSITY,
     PENNSYLVANIA STATE UNIVERSITY, TOKYO INSTITUTE OF TECHNOLOGY,
     UNIVERSITY OF AARHUS, UNIVERSITY OF ALBERTA,
     UNIVERSITY OF CALIFORNIA AT SANTA BARBARA,
     UNIVERSITY OF COPENHAGEN, UNIVERSITY OF IOWA,
     UNIVERSITY OF MEMPHIS, UNIVERSITY OF MINNESOTA,
     UNIVERSITY OF NEBRASKA, UNIVERSITY OF NEW ENGLAND,
     UNIVERSITY OF NOTRE DAME, UNIVERSITY OF PISA,
     UNIVERSITY OF SILESIA, UNIVERSITY OF TOKYO,
     UNIVERSITY OF ZURICH, WASEDA UNIVERSITY, YALE UNIVERSITY

  GAMESS SOFTWARE MANAGEMENT TEAM FOR THIS RELEASE:
     MARK S. GORDON (TEAM LEAD),
     BRETT BODE (SENIOR ADVISOR),
     GIUSEPPE BARCA,
     COLLEEN BERTONI,
     KRISTOPHER KEIPERT (ADVISOR),
     SAROM S. LEANG (DEVELOPMENT LEAD),
     BUU PHAM,
     JORGE LUIS GALVEZ VALLEJO (WEBSITE ADMINISTRATOR),
     PENG XU

 EXECUTION OF GAMESS BEGUN 16:42:24 11-MAR-2022    

            ECHO OF THE FIRST FEW INPUT CARDS -
 INPUT CARD> $CONTRL                                                                        
 INPUT CARD>    RUNTYP=CONICAL                                                              
 INPUT CARD>    TDDFT=EXCITE                                                                
 INPUT CARD>    SCFTYP= RHF                                                                 
 INPUT CARD>    DFTTYP=BHHLYP                                                               
 INPUT CARD>    ICHARG=0                                                                    
 INPUT CARD>    MULT=1                                                                      
 INPUT CARD>    COORD=UNIQUE                                                                
 INPUT CARD> $END                                                                           
 INPUT CARD> $SYSTEM                                                                        
 INPUT CARD>    MWORDS=128                                                                  
 INPUT CARD> $END                                                                           
 INPUT CARD> $BASIS                                                                         
 INPUT CARD>    GBASIS=N31 NGAUSS=6 NDFUNC=1                                                
 INPUT CARD> $END                                                                           
 INPUT CARD> $CONICL                                                                        
 INPUT CARD>    IXROOT(1)=0,1                                                               
 INPUT CARD> $END                                                                           
 INPUT CARD> $TDDFT                                                                         
 INPUT CARD>    NSTATE=3                                                                    
 INPUT CARD>    TAMMD=.T.                                                                   
 INPUT CARD> $END                                                                           
 INPUT CARD> $DATA                                                                          
 INPUT CARD>C2H4                                                                            
 INPUT CARD>C1 1                                                                            
 INPUT CARD>C 6 0.00000000 0.00000000 0.00000000                                            
 INPUT CARD>C 6 -1.39387838 -0.02023373 0.05708308                                          
 INPUT CARD>H 1 -2.02405816 -0.69695202 0.61316012                                          
 INPUT CARD>H 1 -1.99290168 0.59587111 -0.65717732                                          
 INPUT CARD>H 1 0.70303672 0.57666607 0.58418458                                            
 INPUT CARD>H 1 0.52478100 -0.71663905 -0.63734377                                          
 INPUT CARD> $END                                                                           
 INPUT CARD>                                                                                
  128000000 WORDS OF MEMORY AVAILABLE

     BASIS OPTIONS
     -------------
     GBASIS=N31          IGAUSS=       6      POLAR=POPN31  
     NDFUNC=       1     NFFUNC=       0     DIFFSP=       F
     NPFUNC=       0      DIFFS=       F     BASNAM=        


     RUN TITLE
     ---------
 C2H4                                                                            

 THE POINT GROUP OF THE MOLECULE IS C1      
 THE ORDER OF THE PRINCIPAL AXIS IS     1

 ATOM      ATOMIC                      COORDINATES (BOHR)
           CHARGE         X                   Y                   Z
 C           6.0     0.0000000000        0.0000000000        0.0000000000
 C           6.0    -2.6340481984       -0.0382362054        0.1078713797
 H           1.0    -3.8249153056       -1.3170483444        1.1587046134
 H           1.0    -3.7660380957        1.1260331219       -1.2418850601
 H           1.0     1.3285467601        1.0897408587        1.1039487825
 H           1.0     0.9916922936       -1.3542514366       -1.2044050853

          INTERNUCLEAR DISTANCES (ANGS.)
          ------------------------------

                1 C          2 C          3 H          4 H          5 H     

   1 C       0.0000000    1.3951935 *  2.2267732 *  2.1814219 *  1.0807757 *
   2 C       1.3951935 *  0.0000000    1.0790254 *  1.1173997 *  2.2430288 *
   3 H       2.2267732 *  1.0790254 *  0.0000000    1.8127657 *  3.0099816  
   4 H       2.1814219 *  1.1173997 *  1.8127657 *  0.0000000    2.9680687 *
   5 H       1.0807757 *  2.2430288 *  3.0099816    2.9680687 *  0.0000000  
   6 H       1.0932400 *  2.1560294 *  2.8391422 *  2.8393313 *  1.7878883 *

                6 H     

   1 C       1.0932400 *
   2 C       2.1560294 *
   3 H       2.8391422 *
   4 H       2.8393313 *
   5 H       1.7878883 *
   6 H       0.0000000  

  * ... LESS THAN  3.000


     ATOMIC BASIS SET
     ----------------
 THE CONTRACTED PRIMITIVE FUNCTIONS HAVE BEEN UNNORMALIZED
 THE CONTRACTED BASIS FUNCTIONS ARE NOW NORMALIZED TO UNITY

  SHELL TYPE  PRIMITIVE        EXPONENT          CONTRACTION COEFFICIENT(S)

 C         

      1   S       1          3047.5248800    0.001834737132
      1   S       2           457.3695180    0.014037322813
      1   S       3           103.9486850    0.068842622264
      1   S       4            29.2101553    0.232184443216
      1   S       5             9.2866630    0.467941348435
      1   S       6             3.1639270    0.362311985337

      2   L       7             7.8682723   -0.119332419775    0.068999066591
      2   L       8             1.8812885   -0.160854151696    0.316423960957
      2   L       9             0.5442493    1.143456437840    0.744308290898

      3   L      10             0.1687145    1.000000000000    1.000000000000

      4   D      11             0.8000000    1.000000000000

 C         

      5   S      12          3047.5248800    0.001834737132
      5   S      13           457.3695180    0.014037322813
      5   S      14           103.9486850    0.068842622264
      5   S      15            29.2101553    0.232184443216
      5   S      16             9.2866630    0.467941348435
      5   S      17             3.1639270    0.362311985337

      6   L      18             7.8682723   -0.119332419775    0.068999066591
      6   L      19             1.8812885   -0.160854151696    0.316423960957
      6   L      20             0.5442493    1.143456437840    0.744308290898

      7   L      21             0.1687145    1.000000000000    1.000000000000

      8   D      22             0.8000000    1.000000000000

 H         

      9   S      23            18.7311370    0.033494604338
      9   S      24             2.8253944    0.234726953484
      9   S      25             0.6401217    0.813757326146

     10   S      26             0.1612778    1.000000000000

 H         

     11   S      27            18.7311370    0.033494604338
     11   S      28             2.8253944    0.234726953484
     11   S      29             0.6401217    0.813757326146

     12   S      30             0.1612778    1.000000000000

 H         

     13   S      31            18.7311370    0.033494604338
     13   S      32             2.8253944    0.234726953484
     13   S      33             0.6401217    0.813757326146

     14   S      34             0.1612778    1.000000000000

 H         

     15   S      35            18.7311370    0.033494604338
     15   S      36             2.8253944    0.234726953484
     15   S      37             0.6401217    0.813757326146

     16   S      38             0.1612778    1.000000000000

 TOTAL NUMBER OF BASIS SET SHELLS             =   16
 NUMBER OF CARTESIAN GAUSSIAN BASIS FUNCTIONS =   38
 NUMBER OF ELECTRONS                          =   16
 CHARGE OF MOLECULE                           =    0
 SPIN MULTIPLICITY                            =    1
 NUMBER OF OCCUPIED ORBITALS (ALPHA)          =    8
 NUMBER OF OCCUPIED ORBITALS (BETA )          =    8
 TOTAL NUMBER OF ATOMS                        =    6
 THE NUCLEAR REPULSION ENERGY IS       32.3646136204

 SELECTED MURRAY-HANDY-LAMING RADIAL GRID

 LEGACY BECKE'S FUZZY CELL METHOD

 SELECTED ORIGINAL BECKE'S PARTITION FUNCTION

     LEBEDEV GRID-BASED DFT OPTIONS
     ------------------------------
     DFTTYP=BHHLYP  
     NRAD  =      96     NLEB  =     302
     NRAD0 =      24     NLEB0 =     110
     SWOFF =    5.00E-03 (PURE SCF -> DFT)
     SWITCH=    3.00E-04 (COARSE -> TIGHT GRID)
     THRESH=    0.00E+00 GTHRE=    1.00E+00

 GRIMME'S EMPIRICAL DISPERSION CORRECTION= F

     $CONTRL OPTIONS
     ---------------
 SCFTYP=RHF          RUNTYP=CONICAL      EXETYP=RUN     
 MPLEVL=       0     CITYP =NONE         CCTYP =NONE         VBTYP =NONE    
 DFTTYP=BHHLYP       TDDFT =EXCITE  
 MULT  =       1     ICHARG=       0     NZVAR =       0     COORD =UNIQUE  
 PP    =NONE         RELWFN=NONE         LOCAL =NONE         NUMGRD=       F
 ISPHER=      -1     NOSYM =       0     MAXIT =      30     UNITS =ANGS    
 PLTORB=       F     MOLPLT=       F     AIMPAC=       F     FRIEND=        
 NPRINT=       7     IREST =       0     GEOM  =INPUT   
 NORMF =       0     NORMP =       0     ITOL  =      20     ICUT  =       9
 INTTYP=BEST         GRDTYP=BEST         QMTTOL= 1.0E-06

     $SYSTEM OPTIONS
     ---------------
  REPLICATED MEMORY=   128000000 WORDS (ON EVERY NODE).
 DISTRIBUTED MEMDDI=           0 MILLION WORDS IN AGGREGATE,
 MEMDDI DISTRIBUTED OVER   1 PROCESSORS IS           0 WORDS/PROCESSOR.
 TOTAL MEMORY REQUESTED ON EACH PROCESSOR=   128000000 WORDS.
 TIMLIM=      525600.00 MINUTES, OR     365.0 DAYS.
 PARALL= F  BALTYP=  DLB     KDIAG=    0  COREFL= F
 MXSEQ2=     300 MXSEQ3=     150  mem10=         0  mem22=         0

          ----------------
          PROPERTIES INPUT
          ----------------

     MOMENTS            FIELD           POTENTIAL          DENSITY
 IEMOM =       1   IEFLD =       0   IEPOT =       0   IEDEN =       0
 WHERE =COMASS     WHERE =NUCLEI     WHERE =NUCLEI     WHERE =NUCLEI  
 OUTPUT=BOTH       OUTPUT=BOTH       OUTPUT=BOTH       OUTPUT=BOTH    
 IEMINT=       0   IEFINT=       0                     IEDINT=       0
                                                       MORB  =       0
          EXTRAPOLATION IN EFFECT
          DIIS IN EFFECT
 ORBITAL PRINTING OPTION: NPREO=     1    38     2     1

     -------------------------------
     INTEGRAL TRANSFORMATION OPTIONS
     -------------------------------
     NWORD  =            0
     CUTOFF = 1.0E-09     MPTRAN =       0
     DIRTRF =       F     AOINTS =DUP     

          ----------------------
          INTEGRAL INPUT OPTIONS
          ----------------------
 NOPK  =       1 NORDER=       0 SCHWRZ=       T

          ----------------------
          TDDFT INPUT PARAMETERS
          ----------------------
 NSTATE=       3 IROOT =       1 MULT  =       1
 MAXVEC=      50 NTRIAL=       5 CNVTOL=  1.00E-07
 TDPRP =       F TRNSD =       F TAMMD =       T
 TPA   =       F ALPHA =       F BETA  =       F
 PFREQ =    0.00    0.00
   NRAD=      48   NLEB=     110

     ------------------------------------------
     THE POINT GROUP IS C1 , NAXIS= 1, ORDER= 1
     ------------------------------------------

     DIMENSIONS OF THE SYMMETRY SUBSPACES ARE
 A   =   38

 ..... DONE SETTING UP THE RUN .....
 STEP CPU TIME =     0.02 TOTAL CPU TIME =          0.0 (      0.0 MIN)
 TOTAL WALL CLOCK TIME=          0.0 SECONDS, CPU UTILIZATION IS    91.38%


          -----------------------------
          STATIONARY POINT LOCATION RUN
          -----------------------------

 OBTAINING INITIAL HESSIAN, HESS=GUESS   
 CARTESIAN COORDINATE OPTIMIZATION USING BADGER'S RULE FORCE CONSTANT GUESS

          PARAMETERS CONTROLLING GEOMETRY SEARCH ARE
          METHOD =QA                  UPHESS =BFGS    
          NNEG   =         0          NFRZ   =         0
          NSTEP  =        50          IFOLOW =         1
          HESS   =GUESS               RESTAR =         F
          IHREP  =         0          HSSEND =         F
          NPRT   =         0          NPUN   =         0
          OPTTOL = 1.000E-04          RMIN   = 1.500E-03
          RMAX   = 1.000E-01          RLIM   = 7.000E-02
          DXMAX  = 2.000E-01          PURIFY =         F
          MOVIE  =         F          TRUPD  =         T
          TRMAX  = 3.000E-01          TRMIN  = 5.000E-02
          ITBMAT =         5          STPT   =         F
          STSTEP = 1.000E-02          PROJCT=          T


          ---------------------------------------
          CONICAL INTERSECTION POINT LOCATION RUN
          ---------------------------------------

          IXROOT(1)=          0          IXROOT(2)=          1
          SYMOFF   =          T          DEBUG    =          F
          TOLSTP   =  1.000E-06          TOLGRD   =  5.000E-03
          ALPHA    =  2.000E-02          SIGMA    =  3.500E+00

 CONICAL INTERSECTION SEARCH BY BRANCHING PLANE UPDATING METHOD

 REFERENCE: S. MAEDA, K. OHNO, AND K. MOROKUMA,
            J. CHEM. THEORY COMPUT. 6, 1538 (2010).

 PROGRAMMED BY NORIYUKI MINEZAWA


 BEGINNING GEOMETRY SEARCH POINT NSERCH=   0 ...

 COORDINATES OF ALL ATOMS ARE (ANGS)
   ATOM   CHARGE       X              Y              Z
 ------------------------------------------------------------
 C           6.0   0.0000000000   0.0000000000   0.0000000000
 C           6.0  -1.3938783800  -0.0202337300   0.0570830800
 H           1.0  -2.0240581600  -0.6969520200   0.6131601200
 H           1.0  -1.9929016800   0.5958711100  -0.6571773200
 H           1.0   0.7030367200   0.5766660700   0.5841845800
 H           1.0   0.5247810000  -0.7166390500  -0.6373437700

          ********************
          1 ELECTRON INTEGRALS
          ********************
 ...... END OF ONE-ELECTRON INTEGRALS ......
 STEP CPU TIME =     0.00 TOTAL CPU TIME =          0.0 (      0.0 MIN)
 TOTAL WALL CLOCK TIME=          0.0 SECONDS, CPU UTILIZATION IS    72.03%

          -------------
          GUESS OPTIONS
          -------------
          GUESS =HUCKEL            NORB  =       0          NORDER=       0
          MIX   =       F          PRTMO =       F          PUNMO =       F
          TOLZ  = 1.0E-08          TOLE  = 1.0E-05
          SYMDEN=       F          PURIFY=       F

 INITIAL GUESS ORBITALS GENERATED BY HUCKEL   ROUTINE.
 HUCKEL GUESS REQUIRES     15726 WORDS.

 SYMMETRIES FOR INITIAL GUESS ORBITALS FOLLOW.   BOTH SET(S).
     8 ORBITALS ARE OCCUPIED (    2 CORE ORBITALS).
     3=A        4=A        5=A        6=A        7=A        8=A        9=A   
    10=A       11=A       12=A       13=A       14=A       15=A       16=A   
    17=A       18=A   
 ...... END OF INITIAL ORBITAL SELECTION ......
 STEP CPU TIME =     0.00 TOTAL CPU TIME =          0.0 (      0.0 MIN)
 TOTAL WALL CLOCK TIME=          0.0 SECONDS, CPU UTILIZATION IS    74.26%

                    ----------------------
                    AO INTEGRAL TECHNOLOGY
                    ----------------------
     S,P,L SHELL ROTATED AXIS INTEGRALS, REPROGRAMMED BY
        KAZUYA ISHIMURA (IMS) AND JOSE SIERRA (SYNSTAR).
     S,P,D,L SHELL ROTATED AXIS INTEGRALS PROGRAMMED BY
        KAZUYA ISHIMURA (INSTITUTE FOR MOLECULAR SCIENCE).
     S,P,D,F,G SHELL TO TOTAL QUARTET ANGULAR MOMENTUM SUM 5,
        ERIC PROGRAM BY GRAHAM FLETCHER (ELORET AND NASA ADVANCED
        SUPERCOMPUTING DIVISION, AMES RESEARCH CENTER).
     S,P,D,F,G,L SHELL GENERAL RYS QUADRATURE PROGRAMMED BY
        MICHEL DUPUIS (PACIFIC NORTHWEST NATIONAL LABORATORY).

          --------------------
          2 ELECTRON INTEGRALS
          --------------------

 THE -PK- OPTION IS OFF, THE INTEGRALS ARE NOT IN SUPERMATRIX FORM.
 STORING   15000 INTEGRALS/RECORD ON DISK, USING 12 BYTES/INTEGRAL.
 TWO ELECTRON INTEGRAL EVALUATION REQUIRES   90532 WORDS OF MEMORY.
 SCHWARZ INEQUALITY OVERHEAD:       741 INTEGRALS, T=        0.00
 II,JST,KST,LST =  1  1  1  1 NREC =         1 INTLOC =    1
 II,JST,KST,LST =  2  1  1  1 NREC =         1 INTLOC =    2
 II,JST,KST,LST =  3  1  1  1 NREC =         1 INTLOC =   34
 II,JST,KST,LST =  4  1  1  1 NREC =         1 INTLOC =  214
 II,JST,KST,LST =  5  1  1  1 NREC =         1 INTLOC = 1189
 II,JST,KST,LST =  6  1  1  1 NREC =         1 INTLOC = 3223
 II,JST,KST,LST =  7  1  1  1 NREC =         2 INTLOC =  969
 II,JST,KST,LST =  8  1  1  1 NREC =         3 INTLOC = 8213
 II,JST,KST,LST =  9  1  1  1 NREC =         7 INTLOC = 6131
 II,JST,KST,LST = 10  1  1  1 NREC =         8 INTLOC = 6037
 II,JST,KST,LST = 11  1  1  1 NREC =         9 INTLOC = 7437
 II,JST,KST,LST = 12  1  1  1 NREC =        10 INTLOC =10419
 II,JST,KST,LST = 13  1  1  1 NREC =        12 INTLOC =   87
 II,JST,KST,LST = 14  1  1  1 NREC =        13 INTLOC = 6517
 II,JST,KST,LST = 15  1  1  1 NREC =        14 INTLOC =14863
 II,JST,KST,LST = 16  1  1  1 NREC =        16 INTLOC =10188
 SCHWARZ INEQUALITY TEST SKIPPED          25 INTEGRAL BLOCKS.
 TOTAL NUMBER OF NONZERO TWO-ELECTRON INTEGRALS =              262642
         18 INTEGRAL RECORDS WERE STORED ON DISK FILE  8.
  ...... END OF TWO-ELECTRON INTEGRALS .....
 STEP CPU TIME =     0.06 TOTAL CPU TIME =          0.1 (      0.0 MIN)
 TOTAL WALL CLOCK TIME=          0.1 SECONDS, CPU UTILIZATION IS    90.83%

          --------------------------
            R-BHHLYP SCF CALCULATION
          --------------------------

     NUCLEAR ENERGY =        32.3646136204
     MAXIT =   30     NPUNCH=    2
     EXTRAP=T  DAMP=F  SHIFT=F  RSTRCT=F  DIIS=T  DEM=F  SOSCF=F
         DENSITY MATRIX CONVERGENCE THRESHOLD=  1.00E-06
     COARSE -> FINE DFT GRID SWITCH THRESHOLD=  3.00E-04 (SWITCH IN $DFT)
                   HF -> DFT SWITCH THRESHOLD=  5.00E-03 (SWOFF IN $DFT)
     MEMORY REQUIRED FOR RHF ITERS=    266475 WORDS.

 DFT CODE IS SWITCHING FROM THE FINE GRID NRAD= 96,  NLEB=  302
                      TO THE COARSE GRID NRAD0= 24, NLEB0=  110

     EXCHANGE FUNCTIONAL   =B88&HFX   
     CORRELATION FUNCTIONAL=LYP88     
     DFT THRESHOLD         =.230E-07
     GRID CHANGE THRESHOLD =.300E-03
 FOR AN EULER-MACLAURIN QUADRATURE USING  96 RADIAL POINTS:
 SMALLEST GAUSSIAN PRIMITIVE EXPONENT=        0.1612777588 OF TYPE -S-
 ON ATOM NUMBER   3 HAS RADIAL NORMALIZATION=  1.000000
  LARGEST GAUSSIAN PRIMITIVE EXPONENT=     3047.5248800000 OF TYPE -S-
 ON ATOM NUMBER   1 HAS RADIAL NORMALIZATION=  1.000000
 DFT IS SWITCHED OFF, PERFORMING PURE SCF UNTIL SWOFF THRESHOLD IS REACHED.

 ITER EX DEM     TOTAL ENERGY        E CHANGE  DENSITY CHANGE    DIIS ERROR
          * * *   INITIATING DIIS PROCEDURE   * * *
   1  0  0      -77.6620442349   -77.6620442349   0.134466011   0.419126679
   2  1  0      -77.8458851245    -0.1838408896   0.063031346   0.055152101
   3  2  0      -77.8587893009    -0.0129041764   0.018442892   0.019302109
   4  3  0      -77.8605428003    -0.0017534994   0.012071657   0.011064073
   5  4  0      -77.8610662943    -0.0005234940   0.004342910   0.003838387
 CONVERGED TO SWOFF, SO DFT CALCULATION IS NOW SWITCHED ON.
          * * *   INITIATING DIIS PROCEDURE   * * *
   6  5  0      -78.3677122747    -0.5066459804   0.033137552   0.063427834
   7  6  0      -78.3711825039    -0.0034702292   0.014906074   0.016186244
   8  7  0      -78.3715592120    -0.0003767081   0.007393155   0.008285047
   9  8  0      -78.3717477646    -0.0001885526   0.000879957   0.000924970
  10  9  0      -78.3717492660    -0.0000015014   0.000714340   0.000489965
  11 10  0      -78.3717506746    -0.0000014086   0.000275738   0.000460928
 DFT CODE IS SWITCHING BACK TO THE FINE GRID
          * * *   INITIATING DIIS PROCEDURE   * * *
  12 11  0      -78.3719292353    -0.0001785607   0.000537555   0.000850518
  13 12  0      -78.3719299601    -0.0000007249   0.000410124   0.000228535
  14 13  0      -78.3719298918     0.0000000683   0.000196490   0.000346359
  15 14  0      -78.3719301423    -0.0000002505   0.000032295   0.000035396
  16 15  0      -78.3719301468    -0.0000000045   0.000021526   0.000035345
  17 16  0      -78.3719301500    -0.0000000032   0.000018403   0.000017561
  18 17  0      -78.3719301512    -0.0000000012   0.000004216   0.000003014
  19 18  0      -78.3719301512    -0.0000000000   0.000000265   0.000000191
  20 19  0      -78.3719301512     0.0000000000   0.000000047   0.000000030

          -----------------
          DENSITY CONVERGED
          -----------------
     TIME TO FORM FOCK OPERATORS=       9.2 SECONDS (       0.5 SEC/ITER)
     TIME TO SOLVE SCF EQUATIONS=       0.0 SECONDS (       0.0 SEC/ITER)

 FINAL R-BHHLYP ENERGY IS      -78.3719301512 AFTER  20 ITERATIONS
 DFT EXCHANGE + CORRELATION ENERGY =        -6.3405559165
 TOTAL ELECTRON NUMBER             =        15.9999768925

          ------------
          EIGENVECTORS
          ------------

                      1          2          3          4          5
                  -10.6054   -10.6024    -0.8532    -0.6766    -0.4990
                     A          A          A          A          A   
    1  C  1  S    0.126404   0.985853  -0.157264   0.121565   0.011450
    2  C  1  S    0.004906   0.039976   0.307913  -0.242900  -0.028773
    3  C  1  X    0.000422  -0.000161  -0.089616  -0.171585   0.368137
    4  C  1  Y   -0.000004  -0.000093  -0.007691   0.002179   0.009857
    5  C  1  Z   -0.000020   0.000046   0.001941  -0.002604   0.070750
    6  C  1  S    0.001641  -0.012336   0.243724  -0.241360  -0.004357
    7  C  1  X   -0.001819   0.000772  -0.002941  -0.062863   0.134965
    8  C  1  Y   -0.000026   0.000309  -0.002719   0.002411   0.005694
    9  C  1  Z    0.000008   0.000004  -0.000645   0.000914   0.036630
   10  C  1 XX   -0.001215  -0.005985   0.012966   0.003120  -0.006339
   11  C  1 YY   -0.000971  -0.006489  -0.007534  -0.003847   0.009708
   12  C  1 ZZ   -0.000923  -0.006567  -0.006711  -0.000210   0.006991
   13  C  1 XY    0.000010   0.000036   0.001072  -0.000878   0.006907
   14  C  1 XZ    0.000020   0.000043   0.000194  -0.002506   0.001551
   15  C  1 YZ    0.000072   0.000179   0.009817  -0.015020   0.008511
   16  C  2  S    0.985823  -0.126778  -0.155559  -0.123527   0.008546
   17  C  2  S    0.039818  -0.005338   0.304681   0.246861  -0.022957
   18  C  2  X    0.000076  -0.000451   0.092433  -0.161028  -0.362926
   19  C  2  Y   -0.000107   0.000013  -0.004812  -0.016945  -0.136346
   20  C  2  Z   -0.000116   0.000020  -0.009122  -0.002016   0.134646
   21  C  2  S   -0.011534   0.004663   0.242928   0.246236   0.005395
   22  C  2  X   -0.000362   0.001901   0.004057  -0.060657  -0.129630
   23  C  2  Y    0.000077  -0.000072  -0.001734  -0.005610  -0.056036
   24  C  2  Z    0.000339   0.000002  -0.003934  -0.002288   0.053196
   25  C  2 XX   -0.006088   0.000334   0.012701  -0.003587  -0.007212
   26  C  2 YY   -0.006492   0.000694  -0.007923   0.003464   0.011707
   27  C  2 ZZ   -0.006553   0.000763  -0.006298   0.000685   0.005121
   28  C  2 XY    0.000079  -0.000009   0.001294   0.002709   0.010424
   29  C  2 XZ   -0.000040   0.000035  -0.000658   0.000500  -0.002852
   30  C  2 YZ   -0.000180  -0.000026  -0.009535  -0.015009  -0.009052
   31  H  3  S   -0.000320  -0.000075   0.084823   0.150814   0.209960
   32  H  3  S    0.002189  -0.000024   0.015753   0.065550   0.161141
   33  H  4  S   -0.000208  -0.000098   0.082230   0.134152   0.011605
   34  H  4  S    0.002213   0.000133   0.015748   0.059445   0.011006
   35  H  5  S   -0.000132  -0.000307   0.084274  -0.153010   0.154954
   36  H  5  S    0.000625   0.002082   0.016085  -0.067239   0.114407
   37  H  6  S   -0.000167  -0.000188   0.088032  -0.136586   0.066690
   38  H  6  S    0.000638   0.002219   0.016312  -0.059241   0.057103

                      6          7          8          9         10
                   -0.4883    -0.4751    -0.2071    -0.0473     0.1755
                     A          A          A          A          A   
    1  C  1  S    0.001147  -0.007719   0.007040   0.005017   0.099912
    2  C  1  S   -0.002894   0.019709  -0.018366  -0.006562  -0.116276
    3  C  1  X    0.057582  -0.161507   0.021403  -0.002364  -0.057000
    4  C  1  Y    0.319346   0.111981  -0.294383  -0.222238  -0.006982
    5  C  1  Z    0.194493   0.241597   0.247296   0.289729  -0.018154
    6  C  1  S    0.002304   0.008600  -0.007985  -0.045226  -1.438094
    7  C  1  X    0.019654  -0.059855   0.012236  -0.005976  -0.231076
    8  C  1  Y    0.136964   0.050957  -0.262200  -0.277222  -0.003130
    9  C  1  Z    0.073790   0.113865   0.283651   0.318220  -0.021660
   10  C  1 XX    0.004056   0.005243  -0.002610   0.003180   0.015939
   11  C  1 YY   -0.003642  -0.007147   0.002000  -0.000411   0.005531
   12  C  1 ZZ   -0.000258  -0.003303   0.001808  -0.001152   0.005338
   13  C  1 XY    0.010507   0.015337  -0.021333   0.014305   0.000967
   14  C  1 XZ    0.017146  -0.001396  -0.022179   0.021017   0.001391
   15  C  1 YZ   -0.001958  -0.006545   0.001291  -0.002118   0.005939
   16  C  2  S   -0.004198  -0.009859  -0.006547   0.004017  -0.120335
   17  C  2  S    0.008517   0.025668   0.013048  -0.007104   0.151248
   18  C  2  X   -0.050114   0.181267  -0.018693   0.024334  -0.100116
   19  C  2  Y    0.249770  -0.171688   0.296768  -0.230188   0.013579
   20  C  2  Z   -0.092960   0.277508   0.242701  -0.284874  -0.032868
   21  C  2  S    0.016188   0.008834   0.026427  -0.023362   1.748483
   22  C  2  X   -0.023640   0.069935  -0.030201   0.019310  -0.365427
   23  C  2  Y    0.106961  -0.078806   0.264660  -0.284247   0.010463
   24  C  2  Z   -0.028282   0.130270   0.277862  -0.313967  -0.096904
   25  C  2 XX   -0.001522   0.004828   0.000431  -0.000003  -0.013966
   26  C  2 YY   -0.000426  -0.002704  -0.001458   0.000177  -0.007183
   27  C  2 ZZ    0.003480  -0.008054   0.000150   0.001080  -0.006892
   28  C  2 XY   -0.002588   0.016726  -0.020997  -0.014071  -0.000126
   29  C  2 XZ    0.016002  -0.005388   0.023193   0.021092  -0.001427
   30  C  2 YZ   -0.003235   0.005030  -0.001025   0.001105   0.005159
   31  H  3  S   -0.105929   0.104425  -0.094328  -0.075030  -0.048141
   32  H  3  S   -0.087962   0.079082  -0.164076  -0.153614  -1.046163
   33  H  4  S    0.146030  -0.218869   0.089070   0.092885  -0.056377
   34  H  4  S    0.121567  -0.176787   0.162180   0.176853  -1.148847
   35  H  5  S    0.196355   0.063493  -0.080880   0.086604   0.051825
   36  H  5  S    0.156992   0.045617  -0.148328   0.171475   0.947130
   37  H  6  S   -0.184619  -0.172774   0.098855  -0.082527   0.038906
   38  H  6  S   -0.148830  -0.137961   0.172413  -0.162552   0.773391

                     11         12         13         14         15
                    0.1915     0.2408     0.2480     0.3596     0.5647
                     A          A          A          A          A   
    1  C  1  S   -0.094740  -0.008547   0.002022   0.081318  -0.020921
    2  C  1  S    0.148078   0.025783  -0.007142  -0.068685  -0.295622
    3  C  1  X    0.188685  -0.008688  -0.042555   0.201820   0.558540
    4  C  1  Y   -0.045018   0.146503  -0.274830   0.016509  -0.039321
    5  C  1  Z   -0.025990   0.195534  -0.230539   0.009730  -0.103517
    6  C  1  S    1.648211   0.069030  -0.052323  -2.468773  -0.163534
    7  C  1  X    0.659834   0.025246  -0.154847   2.691815  -0.999004
    8  C  1  Y   -0.156169   0.300400  -1.135518   0.027666   0.065939
    9  C  1  Z   -0.054869   0.900594  -0.674049  -0.032989   0.098261
   10  C  1 XX    0.005337  -0.000762   0.003118   0.015947  -0.108758
   11  C  1 YY   -0.006942   0.002738  -0.000865  -0.010741   0.014214
   12  C  1 ZZ   -0.006085  -0.000657  -0.003151  -0.008557   0.014806
   13  C  1 XY    0.000274  -0.017085  -0.008827  -0.003167  -0.004123
   14  C  1 XZ    0.002068   0.014045   0.009557  -0.001097   0.006302
   15  C  1 YZ    0.004848   0.002806   0.000001  -0.022083   0.007714
   16  C  2  S   -0.066515   0.008358   0.013150  -0.082149  -0.020318
   17  C  2  S    0.115410  -0.020329  -0.004028   0.070986  -0.295326
   18  C  2  X   -0.171186  -0.021805   0.041785   0.200204  -0.573939
   19  C  2  Y    0.004722   0.241188   0.197049   0.036984   0.014813
   20  C  2  Z   -0.027936  -0.274096  -0.141161  -0.012275  -0.056822
   21  C  2  S    1.193481  -0.105147  -0.389111   2.507058  -0.147886
   22  C  2  X   -0.577115  -0.048658   0.096179   2.665316   1.019505
   23  C  2  Y    0.039742   0.695607   0.928180   0.143874  -0.027046
   24  C  2  Z   -0.087158  -1.093790  -0.264455  -0.173230   0.032650
   25  C  2 XX    0.008308   0.003851   0.001695  -0.014811  -0.106002
   26  C  2 YY   -0.005685  -0.000578  -0.001150   0.009802   0.013103
   27  C  2 ZZ   -0.003629  -0.002239   0.002636   0.009130   0.016418
   28  C  2 XY   -0.000870   0.012781  -0.014661  -0.002076  -0.003910
   29  C  2 XZ   -0.000177   0.008691  -0.014642   0.002710   0.004020
   30  C  2 YZ   -0.005847   0.001993  -0.000415  -0.022544  -0.008085
   31  H  3  S   -0.007262   0.017054   0.005934   0.025971   0.002719
   32  H  3  S   -0.857572   1.367719   1.150814   0.748148   0.209930
   33  H  4  S   -0.012391  -0.020969  -0.007958   0.064770   0.059112
   34  H  4  S   -0.947474  -1.343652  -0.688479   0.334133   0.095136
   35  H  5  S   -0.011414  -0.007602   0.013756  -0.020897  -0.021394
   36  H  5  S   -1.088023  -0.922340   1.446942  -0.743452   0.244495
   37  H  6  S   -0.024405   0.020576  -0.010509  -0.062680   0.072130
   38  H  6  S   -1.280191   0.898715  -1.345491  -0.397199   0.072756

                     16         17         18         19         20
                    0.6538     0.6569     0.7150     0.7506     0.7773
                     A          A          A          A          A   
    1  C  1  S   -0.003670  -0.003517  -0.060585  -0.053656   0.014083
    2  C  1  S   -0.031105  -0.029107   0.050271  -0.429676  -0.105899
    3  C  1  X   -0.083764  -0.063605  -0.623581  -0.199036   0.079812
    4  C  1  Y    0.372569  -0.660804  -0.001393   0.037832  -0.484965
    5  C  1  Z   -0.513422   0.530350  -0.167269   0.328380  -0.373720
    6  C  1  S    0.104805  -0.086780  -0.075720   1.240770   0.326755
    7  C  1  X    0.269884   0.220919   1.100501   0.495321   0.170613
    8  C  1  Y   -0.242644   0.746027   0.187234  -0.159981   1.704309
    9  C  1  Z    0.596278  -0.315964   0.477161  -0.956357   1.041761
   10  C  1 XX   -0.000847  -0.022212  -0.131706  -0.086964   0.025088
   11  C  1 YY   -0.003007   0.003897   0.020333  -0.039975  -0.004421
   12  C  1 ZZ   -0.007349  -0.002972   0.019233  -0.015211  -0.015991
   13  C  1 XY    0.005718  -0.004270  -0.057018   0.060348  -0.053636
   14  C  1 XZ    0.018963  -0.002239  -0.027824   0.001422  -0.114933
   15  C  1 YZ   -0.009867  -0.004203  -0.061960  -0.097487   0.012537
   16  C  2  S    0.005202   0.010215   0.067247  -0.007008  -0.023927
   17  C  2  S   -0.039984   0.009228   0.078390  -0.444823  -0.088490
   18  C  2  X    0.027131  -0.064788  -0.582039  -0.197161   0.256607
   19  C  2  Y   -0.549160  -0.510395   0.121816   0.233136   0.345694
   20  C  2  Z   -0.650069  -0.344914   0.189633  -0.325144  -0.077757
   21  C  2  S    0.151981   0.030975  -0.086750   0.890917   0.544569
   22  C  2  X   -0.009429   0.252168   1.050303  -0.264344  -0.526270
   23  C  2  Y    0.442075   0.608740  -0.103158  -0.647639  -1.344886
   24  C  2  Z    0.677438   0.118547  -0.433929   1.023463   0.079342
   25  C  2 XX    0.002029   0.019562   0.147309  -0.000658  -0.031538
   26  C  2 YY   -0.005665   0.004402  -0.005514  -0.054605  -0.012704
   27  C  2 ZZ   -0.001169  -0.008352  -0.013235  -0.022897  -0.001940
   28  C  2 XY    0.005098   0.001213   0.044813  -0.077626  -0.000427
   29  C  2 XZ   -0.018586   0.007446   0.004254   0.035417   0.097613
   30  C  2 YZ   -0.003855  -0.009051  -0.082357   0.043645   0.039239
   31  H  3  S   -0.061209   0.196055   0.393106  -0.484604  -0.345761
   32  H  3  S   -0.132125   0.233656   0.180635  -0.481065  -0.498571
   33  H  4  S    0.069894  -0.068346   0.265717  -0.002486   0.082773
   34  H  4  S    0.134169  -0.133211   0.122861   0.126103   0.064611
   35  H  5  S   -0.153448  -0.152713  -0.426997  -0.235113  -0.391966
   36  H  5  S   -0.245200  -0.160455  -0.213740  -0.026453  -0.638606
   37  H  6  S    0.040146   0.092192  -0.071462  -0.569968   0.360387
   38  H  6  S    0.135187   0.123744  -0.131315  -0.395265   0.491487

                     21         22         23         24         25
                    0.7839     0.9522     0.9656     1.0178     1.0554
                     A          A          A          A          A   
    1  C  1  S    0.022603   0.011538  -0.004572   0.023420   0.013479
    2  C  1  S    0.477163  -0.020645   0.134093  -0.449976  -1.097884
    3  C  1  X   -0.068687  -0.050776  -0.081739  -0.512921  -0.408778
    4  C  1  Y    0.008815  -0.026031  -0.683514  -0.005160  -0.004605
    5  C  1  Z    0.212668   0.055269  -0.629529  -0.040353  -0.008334
    6  C  1  S   -0.945402   0.028396  -0.313725   0.756120   2.164601
    7  C  1  X   -0.536905   0.071099   0.163720   0.810299   0.762236
    8  C  1  Y    0.168127   0.158630   1.172840   0.047085  -0.010906
    9  C  1  Z   -0.786163  -0.178076   1.095038   0.133675   0.006291
   10  C  1 XX    0.032086   0.013143   0.018257  -0.079417  -0.106526
   11  C  1 YY    0.038586  -0.006904  -0.008659   0.003871  -0.025010
   12  C  1 ZZ    0.036100  -0.007590   0.000000  -0.012092  -0.032561
   13  C  1 XY    0.061805  -0.083120   0.138461   0.035750   0.005285
   14  C  1 XZ   -0.019781   0.075021   0.139501  -0.002713   0.035721
   15  C  1 YZ    0.064707   0.023750  -0.025807   0.100867   0.088735
   16  C  2  S    0.044017  -0.009709   0.010622  -0.024236   0.008140
   17  C  2  S    0.422553   0.260167   0.015226   0.612273  -1.022037
   18  C  2  X   -0.082540  -0.121703  -0.067101  -0.549901   0.292958
   19  C  2  Y    0.260499   0.641005   0.069195  -0.191101   0.088030
   20  C  2  Z   -0.405640  -0.635032   0.026408   0.137156  -0.015072
   21  C  2  S   -1.164542  -0.466466   0.007188  -1.075091   2.076211
   22  C  2  X    0.296737   0.195430   0.138869   0.886793  -0.545833
   23  C  2  Y   -0.866708  -1.121143  -0.197177   0.285417  -0.140985
   24  C  2  Z    1.283440   1.114742  -0.134810  -0.267265   0.004566
   25  C  2 XX    0.065464   0.022300   0.021219   0.095369  -0.094277
   26  C  2 YY    0.017836   0.017037  -0.005426   0.002262  -0.024694
   27  C  2 ZZ    0.043037  -0.005413  -0.003574   0.015253  -0.029004
   28  C  2 XY   -0.075737   0.135136  -0.079412  -0.047535   0.020746
   29  C  2 XZ    0.060356  -0.128158  -0.088297   0.030218  -0.021810
   30  C  2 YZ   -0.089961   0.034783  -0.010372   0.108805  -0.065461
   31  H  3  S    0.043580   0.448509   0.065360  -0.679915   0.407039
   32  H  3  S   -0.252212  -1.134937  -0.011918   1.329032  -1.072985
   33  H  4  S    0.699517  -0.784510   0.011311  -0.338577   0.276017
   34  H  4  S    0.507858   1.757065   0.078724   0.567101  -0.799525
   35  H  5  S    0.369666   0.073486   0.595302   0.474818   0.491961
   36  H  5  S    0.394203  -0.073416  -1.402115  -0.923779  -1.185643
   37  H  6  S    0.237350   0.117414  -0.690365   0.450332   0.391285
   38  H  6  S    0.103851  -0.127613   1.593209  -0.680156  -1.037405

                     26         27         28         29         30
                    1.1192     1.6540     1.8292     1.8898     1.9443
                     A          A          A          A          A   
    1  C  1  S   -0.032628   0.000989  -0.002401  -0.000224  -0.001177
    2  C  1  S   -1.407686   0.006872  -0.077573   0.007816   0.029464
    3  C  1  X    0.291989  -0.003435   0.025471   0.014383  -0.030454
    4  C  1  Y    0.013900  -0.038238   0.008843   0.137464  -0.023626
    5  C  1  Z   -0.013100   0.001737  -0.122430   0.044596   0.061138
    6  C  1  S    4.864262  -0.008155   0.076389  -0.134125   0.103781
    7  C  1  X   -1.893950  -0.023500  -0.106012   0.370247   0.026270
    8  C  1  Y   -0.136865   0.022875  -0.544972   0.353103   0.346106
    9  C  1  Z   -0.000449  -0.022018  -0.156096   0.654774  -0.008710
   10  C  1 XX    0.001369   0.009008  -0.005763  -0.070474  -0.014908
   11  C  1 YY   -0.110602  -0.575573  -0.381367  -0.146925  -0.469882
   12  C  1 ZZ   -0.098233   0.570058   0.375912   0.224661   0.499359
   13  C  1 XY    0.013249  -0.132894   0.216010   0.563400  -0.263847
   14  C  1 XZ   -0.000021   0.081891  -0.526474  -0.079091   0.374923
   15  C  1 YZ   -0.117749   0.028926   0.054555   0.135423   0.062984
   16  C  2  S    0.033756   0.001319   0.002908   0.001435   0.002177
   17  C  2  S    1.397313   0.010101  -0.017061   0.014761   0.068888
   18  C  2  X    0.294042  -0.002225  -0.029851   0.062058   0.029223
   19  C  2  Y    0.017795  -0.041722   0.014606   0.131622  -0.027031
   20  C  2  Z   -0.009932   0.021039  -0.119542   0.011529   0.062573
   21  C  2  S   -4.852070  -0.041211  -0.155368   0.206303  -0.076294
   22  C  2  X   -1.881575  -0.010791   0.097848   0.193514  -0.127259
   23  C  2  Y   -0.005340  -0.021357   0.569646   0.119691  -0.466376
   24  C  2  Z    0.146383   0.035870  -0.229889  -0.587347   0.304200
   25  C  2 XX   -0.002435  -0.005048   0.071154  -0.016200  -0.068705
   26  C  2 YY    0.101938  -0.576845   0.242819  -0.046983   0.614844
   27  C  2 ZZ    0.108809   0.586476  -0.326971   0.078432  -0.530594
   28  C  2 XY   -0.018195   0.137713   0.103271  -0.630799  -0.036440
   29  C  2 XZ    0.005609  -0.003652   0.511957  -0.328547  -0.261578
   30  C  2 YZ   -0.122904   0.003559   0.087386   0.072781  -0.000368
   31  H  3  S    0.151314  -0.054914   0.356210   0.349278  -0.290836
   32  H  3  S    0.177153   0.025038   0.175469   0.129855  -0.153355
   33  H  4  S    0.177106   0.056873  -0.262335  -0.215022   0.265916
   34  H  4  S    0.189112  -0.014596  -0.079011  -0.077244   0.109848
   35  H  5  S   -0.106797   0.032572   0.269810  -0.491515  -0.144977
   36  H  5  S   -0.154947  -0.008217   0.114980  -0.234418  -0.066725
   37  H  6  S   -0.184463  -0.018426  -0.251179   0.334795   0.082284
   38  H  6  S   -0.238339   0.031288  -0.127815   0.090843   0.064873

                     31         32         33         34         35
                    2.0370     2.1015     2.2892     2.6095     2.6396
                     A          A          A          A          A   
    1  C  1  S    0.037197  -0.025277  -0.027624   0.009730   0.001044
    2  C  1  S    0.322863  -0.381712   0.030734   0.006776   0.023463
    3  C  1  X   -0.068381   0.311728  -0.024826   0.115452   0.074916
    4  C  1  Y    0.009990   0.023105  -0.026649   0.106657  -0.004317
    5  C  1  Z   -0.011342   0.012548  -0.016272  -0.055781   0.090606
    6  C  1  S   -1.257848   0.405829   0.470533  -0.425839  -0.188821
    7  C  1  X    0.066740  -0.317689   0.341123   0.312080   0.199602
    8  C  1  Y    0.166108   0.040215  -0.089629   0.052095  -0.010390
    9  C  1  Z    0.193269   0.017143  -0.038618  -0.065423   0.031691
   10  C  1 XX    0.044962   0.602239  -0.138601  -0.121496  -0.040350
   11  C  1 YY   -0.113572  -0.421730   0.092350   0.074149  -0.024663
   12  C  1 ZZ    0.090733  -0.390990   0.007957   0.030247   0.021970
   13  C  1 XY    0.035742  -0.045002  -0.037636   0.001473   0.898341
   14  C  1 XZ   -0.058699  -0.004841  -0.054239   0.812498   0.403777
   15  C  1 YZ   -0.675044   0.171275   0.790335   0.036853  -0.019900
   16  C  2  S   -0.039615  -0.020895  -0.024107  -0.010440  -0.016974
   17  C  2  S   -0.371877  -0.346966   0.044879  -0.009419   0.006978
   18  C  2  X   -0.085052  -0.297581   0.028442   0.127509   0.024091
   19  C  2  Y    0.003323  -0.016989  -0.017977   0.088316   0.048469
   20  C  2  Z   -0.005601   0.032774  -0.005065   0.007755   0.104220
   21  C  2  S    1.315701   0.279975   0.370952   0.435815   0.360011
   22  C  2  X    0.060457   0.316837  -0.347123   0.302738   0.103573
   23  C  2  Y    0.013353  -0.053299   0.039374   0.039824   0.034093
   24  C  2  Z   -0.209933  -0.015499  -0.039128   0.024515   0.038175
   25  C  2 XX    0.001997   0.599644  -0.135031   0.236862   0.085940
   26  C  2 YY    0.006615  -0.384103   0.039016  -0.142879  -0.011224
   27  C  2 ZZ   -0.049527  -0.420821   0.060817  -0.077523  -0.128439
   28  C  2 XY   -0.141154  -0.063063   0.015762  -0.396215   0.811937
   29  C  2 XZ    0.018034  -0.110124   0.052370   0.871499  -0.023711
   30  C  2 YZ   -0.736756  -0.092231  -0.744655   0.021796  -0.099769
   31  H  3  S   -0.302903  -0.036424  -0.335538   0.438596  -0.367434
   32  H  3  S   -0.104457  -0.017999  -0.049713  -0.153440   0.122827
   33  H  4  S   -0.495563   0.070851  -0.388089  -0.383619   0.195461
   34  H  4  S   -0.146477  -0.065783  -0.049132   0.195758  -0.118817
   35  H  5  S    0.308485  -0.095835  -0.285986  -0.304229  -0.473673
   36  H  5  S    0.038636  -0.012470  -0.085955   0.090572   0.157012
   37  H  6  S    0.471665   0.026460  -0.492277   0.210551   0.398243
   38  H  6  S    0.189724  -0.083588  -0.042940  -0.121841  -0.200577

                     36         37         38
                    2.7746     4.2320     4.3732
                     A          A          A   
    1  C  1  S   -0.080679  -0.326656  -0.334850
    2  C  1  S    0.172256   2.153118   2.149802
    3  C  1  X   -0.599917  -0.111888   0.278772
    4  C  1  Y    0.021905   0.006719   0.005713
    5  C  1  Z    0.036766   0.003378  -0.014803
    6  C  1  S    2.031867   0.997072   1.672323
    7  C  1  X   -1.197678   0.173470  -0.144084
    8  C  1  Y   -0.020005  -0.025752  -0.038257
    9  C  1  Z    0.030759  -0.005023  -0.001978
   10  C  1 XX    1.041420  -1.196400  -1.695622
   11  C  1 YY   -0.563163  -1.278698  -1.280812
   12  C  1 ZZ   -0.563101  -1.275778  -1.280710
   13  C  1 XY    0.112165  -0.012369  -0.012261
   14  C  1 XZ    0.090183  -0.015225   0.004293
   15  C  1 YZ    0.016341  -0.035636   0.000427
   16  C  2  S    0.078974  -0.338066   0.323415
   17  C  2  S   -0.165720   2.224340  -2.074820
   18  C  2  X   -0.604002   0.100870   0.284717
   19  C  2  Y    0.023810   0.008197  -0.005241
   20  C  2  Z    0.028626   0.002479  -0.013465
   21  C  2  S   -2.024209   1.061274  -1.630634
   22  C  2  X   -1.202009  -0.153770  -0.150144
   23  C  2  Y   -0.029953  -0.003620   0.017407
   24  C  2  Z    0.064546  -0.040995   0.026076
   25  C  2 XX   -1.019083  -1.248116   1.650003
   26  C  2 YY    0.543748  -1.323205   1.238412
   27  C  2 ZZ    0.548539  -1.318857   1.234587
   28  C  2 XY   -0.042623  -0.016645   0.019893
   29  C  2 XZ    0.215370  -0.001237  -0.033471
   30  C  2 YZ    0.011991   0.034028   0.004006
   31  H  3  S    0.096966   0.155955  -0.111814
   32  H  3  S   -0.123260  -0.351287   0.300478
   33  H  4  S   -0.060568   0.125960  -0.068201
   34  H  4  S    0.001938  -0.357104   0.259597
   35  H  5  S   -0.155346   0.150174   0.121707
   36  H  5  S    0.149582  -0.346373  -0.300849
   37  H  6  S    0.088750   0.134478   0.080744
   38  H  6  S   -0.019343  -0.356414  -0.293416
 ...... END OF RHF CALCULATION ......
 STEP CPU TIME =     9.29 TOTAL CPU TIME =          9.4 (      0.2 MIN)
 TOTAL WALL CLOCK TIME=         10.0 SECONDS, CPU UTILIZATION IS    93.56%

     ---------------------------------------------------------------------
     PROPERTIES FOR THE BHHLYP   DFT FUNCTIONAL (RHF  TYPE) DENSITY MATRIX
     ---------------------------------------------------------------------

          -----------------
          ENERGY COMPONENTS
          -----------------

         WAVEFUNCTION NORMALIZATION =       1.0000000000

                ONE ELECTRON ENERGY =    -168.0966076096
                TWO ELECTRON ENERGY =      57.3600638380
           NUCLEAR REPULSION ENERGY =      32.3646136204
                                      ------------------
                       TOTAL ENERGY =     -78.3719301512

 ELECTRON-ELECTRON POTENTIAL ENERGY =      57.3600638380
  NUCLEUS-ELECTRON POTENTIAL ENERGY =    -245.8710925378
   NUCLEUS-NUCLEUS POTENTIAL ENERGY =      32.3646136204
                                      ------------------
             TOTAL POTENTIAL ENERGY =    -156.1464150794
               TOTAL KINETIC ENERGY =      77.7744849282
                 VIRIAL RATIO (V/T) =       2.0076817638

          ---------------------------------------
          MULLIKEN AND LOWDIN POPULATION ANALYSES
          ---------------------------------------

     ATOMIC MULLIKEN POPULATION IN EACH MOLECULAR ORBITAL

                      1          2          3          4          5

                  2.000000   2.000000   2.000000   2.000000   2.000000

    1             0.033210   1.965952   0.882600   0.651707   0.643308
    2             1.965891   0.033246   0.872534   0.650886   0.779570
    3             0.000420   0.000001   0.060619   0.190188   0.348562
    4             0.000417   0.000001   0.058244   0.154167   0.001611
    5             0.000030   0.000386   0.060203   0.195705   0.187993
    6             0.000033   0.000414   0.065801   0.157348   0.038956

                      6          7          8

                  2.000000   2.000000   2.000000

    1             0.763233   0.520856   0.896294
    2             0.413506   0.745560   0.890679
    3             0.085959   0.080677   0.054373
    4             0.172498   0.385856   0.054142
    5             0.297060   0.029572   0.041354
    6             0.267743   0.237479   0.063158

               ----- POPULATIONS IN EACH AO -----
                             MULLIKEN      LOWDIN
              1  C  1  S      1.99361     1.98056
              2  C  1  S      0.69197     0.36803
              3  C  1  X      0.74541     0.65910
              4  C  1  Y      0.67318     0.62440
              5  C  1  Z      0.57094     0.52459
              6  C  1  S      0.60523     0.34452
              7  C  1  X      0.22969     0.38201
              8  C  1  Y      0.38032     0.47620
              9  C  1  Z      0.43700     0.48579
             10  C  1 XX      0.01515     0.18488
             11  C  1 YY     -0.00539     0.13412
             12  C  1 ZZ     -0.00776     0.13051
             13  C  1 XY      0.01204     0.02617
             14  C  1 XZ      0.01099     0.01986
             15  C  1 YZ      0.00480     0.00683
             16  C  2  S      1.99362     1.98048
             17  C  2  S      0.69099     0.36800
             18  C  2  X      0.74118     0.65542
             19  C  2  Y      0.66403     0.61646
             20  C  2  Z      0.57306     0.52536
             21  C  2  S      0.61379     0.34799
             22  C  2  X      0.23098     0.38300
             23  C  2  Y      0.38040     0.47459
             24  C  2  Z      0.43412     0.48571
             25  C  2 XX      0.01408     0.18295
             26  C  2 YY     -0.00586     0.13385
             27  C  2 ZZ     -0.00654     0.13249
             28  C  2 XY      0.01203     0.02624
             29  C  2 XZ      0.01133     0.02041
             30  C  2 YZ      0.00464     0.00651
             31  H  3  S      0.52146     0.47644
             32  H  3  S      0.29934     0.35198
             33  H  4  S      0.50485     0.46410
             34  H  4  S      0.32208     0.36595
             35  H  5  S      0.51554     0.46866
             36  H  5  S      0.29676     0.35035
             37  H  6  S      0.51792     0.47691
             38  H  6  S      0.31301     0.35858

          ----- MULLIKEN ATOMIC OVERLAP POPULATIONS -----
          (OFF-DIAGONAL ELEMENTS NEED TO BE MULTIPLIED BY 2)

             1           2           3           4           5

    1    5.2225572
    2    0.5051982   5.2194920
    3   -0.0464345   0.3630716   0.5586192
    4   -0.0527885   0.3617879  -0.0546352   0.5680052
    5    0.3667742  -0.0394030   0.0048479  -0.0027393   0.5382372
    6    0.3618529  -0.0582750  -0.0046692   0.0073043  -0.0554142

             6

    6    0.5801332

          TOTAL MULLIKEN AND LOWDIN ATOMIC POPULATIONS
       ATOM         MULL.POP.    CHARGE          LOW.POP.     CHARGE
    1 C             6.357159   -0.357159         6.347561   -0.347561
    2 C             6.351872   -0.351872         6.339465   -0.339465
    3 H             0.820800    0.179200         0.828419    0.171581
    4 H             0.826934    0.173066         0.830053    0.169947
    5 H             0.812303    0.187697         0.819011    0.180989
    6 H             0.830932    0.169068         0.835490    0.164510

          -------------------------------
          BOND ORDER AND VALENCE ANALYSIS     BOND ORDER THRESHOLD=0.050
          -------------------------------

                   BOND                       BOND                       BOND
  ATOM PAIR DIST  ORDER      ATOM PAIR DIST  ORDER      ATOM PAIR DIST  ORDER
    1   2  1.395  1.984        1   5  1.081  0.943        1   6  1.093  0.949
    2   3  1.079  0.942        2   4  1.117  0.949

                       TOTAL       BONDED        FREE
      ATOM            VALENCE     VALENCE     VALENCE
    1 C                 3.844       3.844      -0.000
    2 C                 3.844       3.844       0.000
    3 H                 0.919       0.919      -0.000
    4 H                 0.926       0.926      -0.000
    5 H                 0.922       0.922       0.000
    6 H                 0.920       0.920      -0.000

          ---------------------
          ELECTROSTATIC MOMENTS
          ---------------------

 POINT   1           X           Y           Z (BOHR)    CHARGE
                -1.317118   -0.032746    0.039577        0.00 (A.U.)
         DX          DY          DZ         /D/  (DEBYE)
     0.021723   -0.128660   -0.105560    0.167834
 ...... END OF PROPERTY EVALUATION ......
 STEP CPU TIME =     0.01 TOTAL CPU TIME =          9.4 (      0.2 MIN)
 TOTAL WALL CLOCK TIME=         10.0 SECONDS, CPU UTILIZATION IS    93.55%

 BEGINNING ONE ELECTRON GRADIENT...
 ..... END OF 1-ELECTRON GRADIENT ......
 STEP CPU TIME =     0.01 TOTAL CPU TIME =          9.4 (      0.2 MIN)
 TOTAL WALL CLOCK TIME=         10.0 SECONDS, CPU UTILIZATION IS    93.54%

          ----------------------
          GRADIENT OF THE ENERGY
          ----------------------
 MEMORY FOR GRID POINT CONTRIBUTIONS TO THE DFT GRADIENT=    232095 WORDS.
 STEP CPU TIME =     1.54 TOTAL CPU TIME =         10.9 (      0.2 MIN)
 TOTAL WALL CLOCK TIME=         11.6 SECONDS, CPU UTILIZATION IS    94.38%

 THE MINIMUM MEMORY REQUIRED FOR THIS RUN IS      80435 WORDS.
 USING    1055955 WORDS FOR 2E- DERIVATIVE INTEGRAL CONTRIBUTIONS.
 THE COARSE/FINE SCHWARZ SCREENINGS SKIPPED           25/         117 BLOCKS.
 THE NUMBER OF GRADIENT INTEGRAL BLOCKS COMPUTED WAS      9040
 ...... END OF 2-ELECTRON GRADIENT ......
 STEP CPU TIME =     0.14 TOTAL CPU TIME =         11.1 (      0.2 MIN)
 TOTAL WALL CLOCK TIME=         11.7 SECONDS, CPU UTILIZATION IS    94.44%

 BEGINNING GEOMETRY SEARCH POINT NSERCH=   0 ...

 COORDINATES OF ALL ATOMS ARE (ANGS)
   ATOM   CHARGE       X              Y              Z
 ------------------------------------------------------------
 C           6.0   0.0000000000   0.0000000000   0.0000000000
 C           6.0  -1.3938783800  -0.0202337300   0.0570830800
 H           1.0  -2.0240581600  -0.6969520200   0.6131601200
 H           1.0  -1.9929016800   0.5958711100  -0.6571773200
 H           1.0   0.7030367200   0.5766660700   0.5841845800
 H           1.0   0.5247810000  -0.7166390500  -0.6373437700

          ********************
          1 ELECTRON INTEGRALS
          ********************
 ...... END OF ONE-ELECTRON INTEGRALS ......
 STEP CPU TIME =     0.00 TOTAL CPU TIME =         11.1 (      0.2 MIN)
 TOTAL WALL CLOCK TIME=         11.7 SECONDS, CPU UTILIZATION IS    94.44%

          --------------------
          2 ELECTRON INTEGRALS
          --------------------

 THE -PK- OPTION IS OFF, THE INTEGRALS ARE NOT IN SUPERMATRIX FORM.
 STORING   15000 INTEGRALS/RECORD ON DISK, USING 12 BYTES/INTEGRAL.
 TWO ELECTRON INTEGRAL EVALUATION REQUIRES   90532 WORDS OF MEMORY.
 SCHWARZ INEQUALITY OVERHEAD:       741 INTEGRALS, T=        0.00
 II,JST,KST,LST =  1  1  1  1 NREC =         1 INTLOC =    1
 II,JST,KST,LST =  2  1  1  1 NREC =         1 INTLOC =    2
 II,JST,KST,LST =  3  1  1  1 NREC =         1 INTLOC =   34
 II,JST,KST,LST =  4  1  1  1 NREC =         1 INTLOC =  214
 II,JST,KST,LST =  5  1  1  1 NREC =         1 INTLOC = 1189
 II,JST,KST,LST =  6  1  1  1 NREC =         1 INTLOC = 3223
 II,JST,KST,LST =  7  1  1  1 NREC =         2 INTLOC =  969
 II,JST,KST,LST =  8  1  1  1 NREC =         3 INTLOC = 8213
 II,JST,KST,LST =  9  1  1  1 NREC =         7 INTLOC = 6131
 II,JST,KST,LST = 10  1  1  1 NREC =         8 INTLOC = 6037
 II,JST,KST,LST = 11  1  1  1 NREC =         9 INTLOC = 7437
 II,JST,KST,LST = 12  1  1  1 NREC =        10 INTLOC =10419
 II,JST,KST,LST = 13  1  1  1 NREC =        12 INTLOC =   87
 II,JST,KST,LST = 14  1  1  1 NREC =        13 INTLOC = 6517
 II,JST,KST,LST = 15  1  1  1 NREC =        14 INTLOC =14863
 II,JST,KST,LST = 16  1  1  1 NREC =        16 INTLOC =10188
 SCHWARZ INEQUALITY TEST SKIPPED          25 INTEGRAL BLOCKS.
 TOTAL NUMBER OF NONZERO TWO-ELECTRON INTEGRALS =              262642
         18 INTEGRAL RECORDS WERE STORED ON DISK FILE  8.
  ...... END OF TWO-ELECTRON INTEGRALS .....
 STEP CPU TIME =     0.04 TOTAL CPU TIME =         11.1 (      0.2 MIN)
 TOTAL WALL CLOCK TIME=         11.8 SECONDS, CPU UTILIZATION IS    94.44%

 -----------------------------------------------------------------------
                    TDDFT CALCULATION FOR SCFTYP=RHF 
                          CODED BY MAHITO CHIBA
 NATIONAL INSTITUTE OF ADVANCED INDUSTRIAL SCIENCE AND TECHNOLOGY, JAPAN
 -----------------------------------------------------------------------
  
 -TDDFT RUNTIME PARAMETERS-
    TRIPLET  = F
    NONEQ    = T
    NSTATE   =                    3
    IROOT    =                    1
    NTRIAL   =                    5
    MAXVEC   =                   50
    ILENG    =                  200
    MAXGRD   =                29161
    NRAD     =                   48
    NLEB     =                  110
 GAS PHASE COMPUTATION
  
 FOR AN EULER-MACLAURIN QUADRATURE USING  48 RADIAL POINTS:
 SMALLEST GAUSSIAN PRIMITIVE EXPONENT=        0.1612777588 OF TYPE -S-
 ON ATOM NUMBER   3 HAS RADIAL NORMALIZATION=  1.000000
  LARGEST GAUSSIAN PRIMITIVE EXPONENT=     3047.5248800000 OF TYPE -S-
 ON ATOM NUMBER   1 HAS RADIAL NORMALIZATION=  1.000000
  
 MEM1  =      196155 MEM2  =        5156 MEMGRID=      308210
 MEMPCM=           0 MEMEFP=           0
 TOTAL MEMORY REQUIRED FOR TD-DFT ITERATIONS IS      509522 WORDS.

 DIAGONAL SHIFT PARAMETER: EDSHFT/A.U.=   0.020

 INITIAL VECTORS / MXVEC                     5 /                  150
 ITERATION #                     1
    CURRENT VECTORS    1 TO   5 (   5 VECTORS)
    STATE NUMBER   1  ENERGY =    3.095076 EV
    STATE NUMBER   2  ENERGY =    7.936489 EV
    STATE NUMBER   3  ENERGY =    8.112091 EV
    MAX ERROR =  3.520E-02 / 1.000E-07
 ITERATION #                     2
    CURRENT VECTORS    6 TO   8 (   3 VECTORS)
    STATE NUMBER   1  ENERGY =    2.329691 EV
    STATE NUMBER   2  ENERGY =    7.804438 EV
    STATE NUMBER   3  ENERGY =    8.019373 EV
    MAX ERROR =  3.565E-04 / 1.000E-07
 ITERATION #                     3
    CURRENT VECTORS    9 TO  11 (   3 VECTORS)
    STATE NUMBER   1  ENERGY =    2.318680 EV
    STATE NUMBER   2  ENERGY =    7.793819 EV
    STATE NUMBER   3  ENERGY =    8.013841 EV
    MAX ERROR =  1.031E-04 / 1.000E-07
 ITERATION #                     4
    CURRENT VECTORS   12 TO  14 (   3 VECTORS)
    STATE NUMBER   1  ENERGY =    2.318555 EV
    STATE NUMBER   2  ENERGY =    7.769944 EV
    STATE NUMBER   3  ENERGY =    7.942247 EV
    MAX ERROR =  5.946E-04 / 1.000E-07
 ITERATION #                     5
    CURRENT VECTORS   15 TO  17 (   3 VECTORS)
    STATE NUMBER   1  ENERGY =    2.318552 EV
    STATE NUMBER   2  ENERGY =    7.761113 EV
    STATE NUMBER   3  ENERGY =    7.916382 EV
    MAX ERROR =  8.634E-05 / 1.000E-07
 ITERATION #                     6
    CURRENT VECTORS   18 TO  19 (   2 VECTORS)
    STATE NUMBER   1  ENERGY =    2.318552 EV
    STATE NUMBER   2  ENERGY =    7.756311 EV
    STATE NUMBER   3  ENERGY =    7.908144 EV
    MAX ERROR =  4.410E-05 / 1.000E-07
 ITERATION #                     7
    CURRENT VECTORS   20 TO  21 (   2 VECTORS)
    STATE NUMBER   1  ENERGY =    2.318552 EV
    STATE NUMBER   2  ENERGY =    7.755285 EV
    STATE NUMBER   3  ENERGY =    7.906294 EV
    MAX ERROR =  3.771E-06 / 1.000E-07
 ITERATION #                     8
    CURRENT VECTORS   22 TO  23 (   2 VECTORS)
    STATE NUMBER   1  ENERGY =    2.318552 EV
    STATE NUMBER   2  ENERGY =    7.755229 EV
    STATE NUMBER   3  ENERGY =    7.906178 EV
    MAX ERROR =  2.501E-07 / 1.000E-07
 ITERATION #                     9
    CURRENT VECTORS   24 TO  25 (   2 VECTORS)
    STATE NUMBER   1  ENERGY =    2.318552 EV
    STATE NUMBER   2  ENERGY =    7.755225 EV
    STATE NUMBER   3  ENERGY =    7.906169 EV
    MAX ERROR =  1.019E-08 / 1.000E-07
  
   ---------------------------------  
     R-TDDFT CALCULATION CONVERGED
   ---------------------------------  
 NUMBER OF USED VECTORS / MAX =  25 / 150
 NUMBER OF ITERATIONS   / MAX =   9 / 100
 NUMBER OF SINGLE EXCITATIONS =   240
 NUMBER OF ATOMIC ORBITALS    =  38
 NUMBER OF ELECTRONS          =          16.0007758
  
  DIAGONAL SHIFT PARAMETER HAS BEEN SUBTRACTED.
  TRUE EXCITATION ENERGIES ARE PRINTED BELOW.  

          -------------------
          SINGLET EXCITATIONS
          -------------------

 STATE #   1  ENERGY =    1.774325 EV
 OSCILLATOR STRENGTH =    0.029431
 LAMBDA DIAGNOSTIC   =    0.868 (RYDBERG/CHARGE TRANSFER CHARACTER)
 SYMMETRY OF STATE   =    A   
                 EXCITATION  DE-EXCITATION
     OCC     VIR  AMPLITUDE      AMPLITUDE
      I       A     X(I->A)        Y(A->I)
     ---     ---   --------       --------
      5       9    0.052583       0.000000
      6       9   -0.030482       0.000000
      7       9    0.144747       0.000000
      8       9    0.974117       0.000000
      3      10    0.038884       0.000000
      4      11    0.047718       0.000000
      7      12    0.053436       0.000000
      8      12   -0.056000       0.000000
      6      13   -0.035175       0.000000
      5      14   -0.060776       0.000000
      5      18   -0.045210       0.000000

 STATE #   2  ENERGY =    7.210997 EV
 OSCILLATOR STRENGTH =    0.006315
 LAMBDA DIAGNOSTIC   =    0.641 (RYDBERG/CHARGE TRANSFER CHARACTER)
 SYMMETRY OF STATE   =    A   
                 EXCITATION  DE-EXCITATION
     OCC     VIR  AMPLITUDE      AMPLITUDE
      I       A     X(I->A)        Y(A->I)
     ---     ---   --------       --------
      5       9    0.416950       0.000000
      6       9   -0.088346       0.000000
      7       9   -0.372019       0.000000
      8      10   -0.807131       0.000000
      6      11    0.034154       0.000000
      8      11    0.094567       0.000000
      5      12    0.035053       0.000000
      8      12   -0.105397       0.000000

 STATE #   3  ENERGY =    7.361942 EV
 OSCILLATOR STRENGTH =    0.023251
 LAMBDA DIAGNOSTIC   =    0.644 (RYDBERG/CHARGE TRANSFER CHARACTER)
 SYMMETRY OF STATE   =    A   
                 EXCITATION  DE-EXCITATION
     OCC     VIR  AMPLITUDE      AMPLITUDE
      I       A     X(I->A)        Y(A->I)
     ---     ---   --------       --------
      3       9   -0.080839       0.000000
      5       9   -0.521668       0.000000
      6       9    0.048264       0.000000
      7       9    0.572336       0.000000
      8       9   -0.036534       0.000000
      8      10   -0.527809       0.000000
      8      11    0.284538       0.000000
      8      12    0.136210       0.000000
      8      13    0.053865       0.000000
      8      14    0.031383       0.000000
      5      17    0.031890       0.000000

                          SUMMARY OF TDDFT RESULTS

   STATE             ENERGY     EXCITATION  TRANSITION DIPOLE, A.U.  OSCILLATOR
   0 ->             HARTREE          EV         X       Y       Z     STRENGTH
   0  A          -78.3719301512    0.000
   1  A          -78.3067249208    1.774     0.8187  0.0155 -0.0805    0.0294
   2  A          -78.1069308724    7.211     0.1055  0.1480 -0.0520    0.0063
   3  A          -78.1013837662    7.362    -0.1872  0.2874 -0.1061    0.0233
  
 TRANSITION        EXCITATION            TRANSITION DIPOLE, A.U.     OSCILLATOR
                       EV              X       Y       Z       DIP    STRENGTH

  1  ->  2           5.437         -0.2120  0.0825 -0.3407   0.4097    0.0224
  1  ->  3           5.588         -0.0779  0.1414  0.1420   0.2151    0.0063
  2  ->  3           0.151         -0.9138  0.1032 -0.0846   0.9235    0.0032

 SELECTING EXCITED STATE IROOT=   1 AT E=      -78.3067249208
 AS THE STATE OF INTEREST.

 ..... DONE WITH TD-DFT EXCITATION ENERGIES .....
 STEP CPU TIME =     9.36 TOTAL CPU TIME =         20.5 (      0.3 MIN)
 TOTAL WALL CLOCK TIME=         21.4 SECONDS, CPU UTILIZATION IS    95.87%

 -----------------------------------------------------------------------
                   TD-DFT ENERGY GRADIENT CALCULATION
                   CODED BY MAHITO CHIBA (AIST, JAPAN)
 -----------------------------------------------------------------------

    -------------------------
       START Z-VECTOR LOOP
    -------------------------
 INITIAL ERROR =  3.654E-03, MUST CONVERGE TO 1.000E-10
 ITER# 1 ERROR =  1.456E-04
 ITER# 2 ERROR =  3.728E-05
 ITER# 3 ERROR =  4.821E-06
 ITER# 4 ERROR =  1.971E-07
 ITER# 5 ERROR =  1.698E-08
 ITER# 6 ERROR =  2.737E-09
 ITER# 7 ERROR =  1.730E-10
 ITER# 8 ERROR =  6.135E-12
    -------------------------
        Z-VECTOR CONVERGED          
    -------------------------
 MAXIMUM MEMORY DURING TDDFT RESPONSES=    402470 WORDS.

 TDDFT NATURAL ORBITAL OCCUPATION NUMBERS FOR EXCITED STATE    1 ARE
  2.0095 2.0000 2.0000 1.9983 1.9973 1.9955 1.9903 1.0260 0.9657 0.0098
  0.0047 0.0029 0.0020 0.0017 0.0000 0.0000 0.0000 0.0000 0.0000 0.0000
  0.0000 0.0000 0.0000 0.0000 0.0000 0.0000-0.0000-0.0000-0.0000-0.0000
 -0.0000-0.0000-0.0000-0.0000-0.0000-0.0000-0.0000-0.0034
 THERE ARE    15.0168 ELECTRONS IN PRINCIPAL TDDFT NATURAL ORBITALS.
 THERE ARE     0.9832 ELECTRONS IN SECONDARY TDDFT NATURAL ORBITALS.

          ----------------------
          TDDFT NATURAL ORBITALS
          ----------------------

                      1          2          3          4          5

                    2.0095     2.0000     2.0000     1.9983     1.9973

    1  C  1  S    0.010077   0.591617   0.797147   0.146991   0.117431
    2  C  1  S   -0.020517   0.026126   0.033500  -0.277282  -0.233199
    3  C  1  X   -0.017237  -0.002012   0.000057  -0.091330  -0.167893
    4  C  1  Y   -0.315275  -0.000615  -0.000046   0.011788   0.003589
    5  C  1  Z   -0.115994  -0.000387   0.000099  -0.012068  -0.004914
    6  C  1  S   -0.021544  -0.002814  -0.010442  -0.228585  -0.223292
    7  C  1  X   -0.010935  -0.001907   0.001639  -0.059872  -0.063025
    8  C  1  Y   -0.160367  -0.000084   0.000303   0.006226   0.003515
    9  C  1  Z   -0.025500  -0.000165   0.000021  -0.006414   0.000275
   10  C  1 XX   -0.004599  -0.003784  -0.004582  -0.008933   0.002660
   11  C  1 YY    0.004547  -0.004044  -0.005167   0.002307  -0.002230
   12  C  1 ZZ    0.001255  -0.004060  -0.005179   0.003844  -0.000769
   13  C  1 XY   -0.002810   0.000019   0.000041  -0.002255  -0.001171
   14  C  1 XZ   -0.015175  -0.000008   0.000036  -0.001100  -0.002236
   15  C  1 YZ    0.001329   0.000205   0.000198  -0.013918  -0.014745
   16  C  2  S    0.007376   0.796141  -0.592987   0.136165  -0.131582
   17  C  2  S   -0.016617   0.034647  -0.024440  -0.256257   0.259340
   18  C  2  X    0.005670   0.001849   0.000579   0.074747  -0.168688
   19  C  2  Y   -0.312274  -0.000290   0.000039   0.035919  -0.003900
   20  C  2  Z    0.121867  -0.000244   0.000154  -0.019969  -0.010839
   21  C  2  S   -0.021334  -0.005681   0.009200  -0.212155   0.247164
   22  C  2  X    0.006426   0.001239   0.002089   0.052927  -0.067745
   23  C  2  Y   -0.160712  -0.000104  -0.000102   0.012027   0.000612
   24  C  2  Z    0.029859   0.000224  -0.000143  -0.006385  -0.004046
   25  C  2 XX    0.000298  -0.004933   0.003296  -0.008599  -0.002476
   26  C  2 YY    0.002285  -0.005346   0.003759   0.002489   0.001601
   27  C  2 ZZ   -0.003041  -0.005354   0.003766   0.003759   0.001198
   28  C  2 XY    0.002333   0.000065  -0.000052  -0.003428   0.002253
   29  C  2 XZ   -0.015237  -0.000047   0.000042   0.001036   0.001050
   30  C  2 YZ    0.002600  -0.000241   0.000122   0.012567  -0.016021
   31  H  3  S    0.142280   0.000032  -0.000301  -0.143842   0.149702
   32  H  3  S    0.097107   0.001787  -0.001293  -0.066546   0.060715
   33  H  4  S   -0.157172   0.000017  -0.000444  -0.097765   0.148741
   34  H  4  S   -0.113330   0.001768  -0.001283  -0.035255   0.069109
   35  H  5  S   -0.151979  -0.000533   0.000375  -0.141574  -0.147819
   36  H  5  S   -0.101755   0.001048   0.001760  -0.060356  -0.065895
   37  H  6  S    0.149740   0.000299   0.000361  -0.127789  -0.130899
   38  H  6  S    0.108899   0.001686   0.001770  -0.051583  -0.053900

                      6          7          8          9         10

                    1.9955     1.9903     1.0260     0.9657     0.0098

    1  C  1  S    0.026669   0.077253   0.006043  -0.003428  -0.105676
    2  C  1  S   -0.049897  -0.149629  -0.018488   0.002103   0.387256
    3  C  1  X    0.074718   0.401448   0.025732   0.008260  -0.711848
    4  C  1  Y    0.117519  -0.015032  -0.307833   0.143410   0.049335
    5  C  1  Z    0.312346  -0.071305   0.225984  -0.264507   0.149781
    6  C  1  S   -0.032469  -0.100605   0.010655   0.032763   0.970102
    7  C  1  X    0.022333   0.134998   0.014345   0.024767  -0.713678
    8  C  1  Y    0.023241  -0.001764  -0.267747   0.277717   0.028021
    9  C  1  Z    0.163893  -0.035887   0.328236  -0.205826   0.089976
   10  C  1 XX    0.000394  -0.009671  -0.004089  -0.004264  -0.053190
   11  C  1 YY   -0.000684   0.011570   0.003847   0.000716   0.015746
   12  C  1 ZZ    0.001676   0.010700   0.001275   0.002438  -0.014410
   13  C  1 XY    0.014582  -0.001940  -0.023999  -0.035260  -0.010503
   14  C  1 XZ    0.002441   0.003229  -0.023912  -0.029157   0.010413
   15  C  1 YZ   -0.003356   0.005945   0.000149   0.004773  -0.018307
   16  C  2  S    0.014866   0.077638  -0.003211  -0.001580   0.105323
   17  C  2  S   -0.022737  -0.151660   0.007635   0.004479  -0.389164
   18  C  2  X   -0.063112  -0.406068  -0.018722  -0.024017  -0.723152
   19  C  2  Y   -0.111178  -0.001416   0.261685   0.223730   0.013826
   20  C  2  Z    0.314666  -0.060994   0.149833   0.307488  -0.089280
   21  C  2  S   -0.013229  -0.097472   0.012874   0.008205  -0.968402
   22  C  2  X   -0.019589  -0.135835  -0.040154   0.000100  -0.719593
   23  C  2  Y   -0.021006  -0.003354   0.192562   0.344176   0.045012
   24  C  2  Z    0.163820  -0.039497   0.261793   0.275575  -0.036965
   25  C  2 XX   -0.001269  -0.010344   0.001019   0.000946   0.054271
   26  C  2 YY    0.003990   0.011142  -0.001472   0.000658  -0.013377
   27  C  2 ZZ   -0.002160   0.011899   0.000593  -0.002011   0.012237
   28  C  2 XY    0.014863  -0.001148  -0.031446   0.028054   0.002079
   29  C  2 XZ   -0.001677   0.001987   0.031626  -0.022491  -0.007167
   30  C  2 YZ   -0.000325  -0.005668  -0.001904  -0.002574  -0.020608
   31  H  3  S    0.148535   0.062048  -0.139773   0.093360   0.031585
   32  H  3  S    0.106145   0.068204  -0.257814   0.209043  -0.007620
   33  H  4  S   -0.139761   0.100708   0.137030  -0.107255  -0.017656
   34  H  4  S   -0.093689   0.100170   0.257326  -0.197957  -0.203194
   35  H  5  S    0.143706   0.067657  -0.096513  -0.131903  -0.035989
   36  H  5  S    0.104471   0.071817  -0.187954  -0.267862   0.009503
   37  H  6  S   -0.149877   0.092376   0.118834   0.131412   0.021380
   38  H  6  S   -0.098181   0.092733   0.206340   0.255165   0.197657

                     11         12         13         14         15

                    0.0047     0.0029     0.0020     0.0017     0.0000

    1  C  1  S    0.029525   0.077338  -0.009290  -0.107867  -0.194260
    2  C  1  S   -0.126909  -0.591436   0.177694   0.780169   1.989033
    3  C  1  X    0.163196  -0.227467   0.126600   0.277458  -0.363538
    4  C  1  Y    0.267215   0.157874   0.413523   0.044003  -0.242733
    5  C  1  Z    0.528437   0.198490   0.538690   0.124209   0.171263
    6  C  1  S   -0.199417  -0.464792  -0.036883  -0.119014  -0.192445
    7  C  1  X    0.098055  -0.317951  -0.111098   0.592822   0.432947
    8  C  1  Y    0.207454  -0.114404  -0.474868  -0.127953   0.370771
    9  C  1  Z    0.205546  -0.119297  -0.407151  -0.107018  -0.100898
   10  C  1 XX    0.017759   0.015833   0.016889  -0.006522  -0.763833
   11  C  1 YY    0.013504   0.052586  -0.002828  -0.062218  -0.829235
   12  C  1 ZZ   -0.007718  -0.006344  -0.021842  -0.059799  -0.889963
   13  C  1 XY    0.017785   0.016023   0.074813   0.023509  -0.022612
   14  C  1 XZ    0.028774   0.065596   0.183263   0.027855  -0.060401
   15  C  1 YZ    0.017540   0.005058   0.002320  -0.037396  -0.144118
   16  C  2  S   -0.026037   0.085527  -0.046017   0.093246  -0.186257
   17  C  2  S    0.084740  -0.649240   0.365370  -0.638813   1.895892
   18  C  2  X    0.133449   0.269674  -0.116571   0.216080   0.360540
   19  C  2  Y    0.288318  -0.148132  -0.383995   0.009989  -0.161619
   20  C  2  Z   -0.583227   0.210400   0.513224   0.052316  -0.132137
   21  C  2  S    0.214867  -0.441026   0.038644   0.153818  -0.091609
   22  C  2  X    0.069392   0.334666  -0.133205   0.567512  -0.353950
   23  C  2  Y    0.171563   0.201274   0.428705   0.129806   0.020280
   24  C  2  Z   -0.192166  -0.116214  -0.375051  -0.072096   0.199205
   25  C  2 XX   -0.009668   0.007416  -0.015605   0.006169  -0.738851
   26  C  2 YY    0.011391   0.048051  -0.041187   0.049093  -0.769737
   27  C  2 ZZ   -0.019144   0.012404   0.004583   0.057333  -0.848099
   28  C  2 XY   -0.018165   0.024022   0.063987   0.009701   0.019116
   29  C  2 XZ    0.043288  -0.061991  -0.186093  -0.019431  -0.041608
   30  C  2 YZ    0.006566  -0.011078   0.005702  -0.036121   0.133336
   31  H  3  S    0.070100   0.116223  -0.012888   0.141115   0.081632
   32  H  3  S    0.603388   0.583025  -0.379825   0.651633  -0.002454
   33  H  4  S   -0.109521   0.089076  -0.081220   0.125019   0.056107
   34  H  4  S   -0.679382   0.600754  -0.123385   0.463360   0.208389
   35  H  5  S   -0.065609   0.101102   0.053965  -0.127004   0.061551
   36  H  5  S   -0.605626   0.509418  -0.155344  -0.710152  -0.027739
   37  H  6  S    0.115939   0.090186  -0.020383  -0.156191   0.099289
   38  H  6  S    0.680394   0.598833   0.072798  -0.595151   0.228866

                     16         17         18         19         20

                    0.0000     0.0000     0.0000     0.0000     0.0000

    1  C  1  S   -0.158617  -0.115942   0.069178   0.007586   0.120044
    2  C  1  S    1.218382   1.405372  -0.424172   0.021443  -0.722786
    3  C  1  X   -0.349533   0.404914  -0.049035   0.064524   0.061338
    4  C  1  Y   -0.117977   0.335538   0.148025  -0.179031  -0.047451
    5  C  1  Z    0.041918  -0.033812  -0.009770   0.148577   0.305653
    6  C  1  S   -0.202808  -0.764089  -0.334090   0.237953   0.145532
    7  C  1  X    0.847519  -0.753116   1.036847  -0.174499  -0.786720
    8  C  1  Y    0.487805  -0.427483  -0.256290  -0.142128  -0.021623
    9  C  1  Z    0.086489  -0.457275  -0.172368  -0.446720  -0.249415
   10  C  1 XX   -0.255864  -0.889372   0.087011  -0.400223   0.541338
   11  C  1 YY   -0.823269  -0.483691   0.455487  -0.139402   0.577076
   12  C  1 ZZ   -0.823031  -0.269601   0.028242   0.103085   0.329806
   13  C  1 XY    0.072536  -0.120438   0.309007  -0.001482  -0.401493
   14  C  1 XZ   -0.077684   0.182986   0.023305  -0.097803  -0.300339
   15  C  1 YZ   -0.160720   0.047026  -0.077187  -0.499422  -0.311096
   16  C  2  S    0.183183   0.061182   0.107012  -0.017824   0.178907
   17  C  2  S   -1.491564  -0.080812  -1.083595  -0.366334  -0.847132
   18  C  2  X   -0.349053   0.167207   0.250041   0.163284   0.146945
   19  C  2  Y    0.166204   0.495342   0.039977  -0.260299  -0.024241
   20  C  2  Z   -0.048127  -0.093325   0.106241  -0.211385  -0.088475
   21  C  2  S    0.415216  -1.248142   0.935828   0.768662  -1.502577
   22  C  2  X    0.758245  -0.067268  -0.046829  -0.312356  -0.804670
   23  C  2  Y   -0.470929  -0.904685  -0.102770   0.263278  -0.059934
   24  C  2  Z    0.221592   0.754883   0.109026   0.345625  -0.042018
   25  C  2 XX    0.408588   0.606820   1.009855   0.201310   0.468653
   26  C  2 YY    0.906872   0.221960   0.624601   0.025860   0.760352
   27  C  2 ZZ    0.847880   0.256331   0.012899   0.010649   0.663023
   28  C  2 XY   -0.165290   0.111819   0.393661   0.287532  -0.172217
   29  C  2 XZ   -0.097947   0.118815  -0.167490  -0.049318  -0.033965
   30  C  2 YZ   -0.214047  -0.322861  -0.029913  -0.596185   0.137585
   31  H  3  S    0.151144  -0.193942  -0.721724  -0.324333   0.359574
   32  H  3  S   -0.368878  -0.391997   0.223329  -0.273237  -0.322643
   33  H  4  S    0.072779  -0.571494   0.133881  -0.090552  -0.391225
   34  H  4  S    0.276382   1.421488  -0.187975  -0.336421   0.445945
   35  H  5  S    0.031249  -0.227567  -0.166443   0.675134  -0.302847
   36  H  5  S   -0.525005   1.209416  -0.067855  -0.179530   0.939590
   37  H  6  S   -0.144847  -0.097810  -0.071217   0.445140   0.182852
   38  H  6  S    0.338895   0.202010  -0.309184  -0.519152  -0.120173

                     21         22         23         24         25

                    0.0000     0.0000     0.0000     0.0000     0.0000

    1  C  1  S    0.013800   0.122283  -0.076646  -0.069611  -0.021308
    2  C  1  S   -0.874673   0.277161   0.098617   0.004268   0.671145
    3  C  1  X   -0.273158   0.112365  -0.001261  -0.076725   0.387519
    4  C  1  Y    0.110240   0.083708  -0.052636   0.014806  -0.236291
    5  C  1  Z    0.382015   0.019142  -0.162786  -0.180301   0.022905
    6  C  1  S    1.377667  -4.885376   1.520091   1.341924  -0.777017
    7  C  1  X    0.857512   2.534100  -0.464424   0.508146  -0.711556
    8  C  1  Y    0.083196   0.101972   0.354420   0.467293   0.934989
[...]
    STATE NUMBER   2  ENERGY =    6.789689 EV
    STATE NUMBER   3  ENERGY =    6.855751 EV
    MAX ERROR =  2.984E-05 / 1.000E-07
 ITERATION #                     4
    CURRENT VECTORS   12 TO  14 (   3 VECTORS)
    STATE NUMBER   1  ENERGY =    0.406587 EV
    STATE NUMBER   2  ENERGY =    6.787956 EV
    STATE NUMBER   3  ENERGY =    6.853573 EV
    MAX ERROR =  9.617E-06 / 1.000E-07
 ITERATION #                     5
    CURRENT VECTORS   15 TO  17 (   3 VECTORS)
    STATE NUMBER   1  ENERGY =    0.406579 EV
    STATE NUMBER   2  ENERGY =    6.787812 EV
    STATE NUMBER   3  ENERGY =    6.853055 EV
    MAX ERROR =  2.304E-06 / 1.000E-07
 ITERATION #                     6
    CURRENT VECTORS   18 TO  19 (   2 VECTORS)
    STATE NUMBER   1  ENERGY =    0.406579 EV
    STATE NUMBER   2  ENERGY =    6.787804 EV
    STATE NUMBER   3  ENERGY =    6.852943 EV
    MAX ERROR =  5.124E-07 / 1.000E-07
 ITERATION #                     7
    CURRENT VECTORS   20 TO  20 (   1 VECTORS)
    STATE NUMBER   1  ENERGY =    0.406579 EV
    STATE NUMBER   2  ENERGY =    6.787803 EV
    STATE NUMBER   3  ENERGY =    6.852929 EV
    MAX ERROR =  4.881E-08 / 1.000E-07
  
   ---------------------------------  
     R-TDDFT CALCULATION CONVERGED
   ---------------------------------  
 NUMBER OF USED VECTORS / MAX =  20 / 150
 NUMBER OF ITERATIONS   / MAX =   7 / 100
 NUMBER OF SINGLE EXCITATIONS =   240
 NUMBER OF ATOMIC ORBITALS    =  38
 NUMBER OF ELECTRONS          =          15.9981696
  
  DIAGONAL SHIFT PARAMETER HAS BEEN SUBTRACTED.
  TRUE EXCITATION ENERGIES ARE PRINTED BELOW.  

          -------------------
          SINGLET EXCITATIONS
          -------------------

 STATE #   1  ENERGY =   -0.137649 EV
 OSCILLATOR STRENGTH =   -0.001253
 LAMBDA DIAGNOSTIC   =    0.725 (RYDBERG/CHARGE TRANSFER CHARACTER)
 SYMMETRY OF STATE   =    A   
                 EXCITATION  DE-EXCITATION
     OCC     VIR  AMPLITUDE      AMPLITUDE
      I       A     X(I->A)        Y(A->I)
     ---     ---   --------       --------
      5       9   -0.044151       0.000000
      7       9    0.095581       0.000000
      8       9    0.986155       0.000000
      8      11    0.039161       0.000000
      8      12    0.038190       0.000000
      7      13    0.039306       0.000000
      5      14   -0.031887       0.000000

 STATE #   2  ENERGY =    6.243575 EV
 OSCILLATOR STRENGTH =    0.009306
 LAMBDA DIAGNOSTIC   =    0.626 (RYDBERG/CHARGE TRANSFER CHARACTER)
 SYMMETRY OF STATE   =    A   
                 EXCITATION  DE-EXCITATION
     OCC     VIR  AMPLITUDE      AMPLITUDE
      I       A     X(I->A)        Y(A->I)
     ---     ---   --------       --------
      3       9    0.050132       0.000000
      4       9    0.068245       0.000000
      5       9    0.037693       0.000000
      6       9    0.844520       0.000000
      7       9   -0.215719       0.000000
      8      10    0.404811       0.000000
      8      11    0.215988       0.000000
      8      13   -0.111128       0.000000
      8      14    0.035694       0.000000
      6      16    0.044056       0.000000

 STATE #   3  ENERGY =    6.308701 EV
 OSCILLATOR STRENGTH =    0.044514
 LAMBDA DIAGNOSTIC   =    0.538 (RYDBERG/CHARGE TRANSFER CHARACTER)
 SYMMETRY OF STATE   =    A   
                 EXCITATION  DE-EXCITATION
     OCC     VIR  AMPLITUDE      AMPLITUDE
      I       A     X(I->A)        Y(A->I)
     ---     ---   --------       --------
      4       9    0.083418       0.000000
      5       9   -0.034007       0.000000
      6       9    0.421946       0.000000
      7       9    0.061228       0.000000
      8      10   -0.892310       0.000000
      8      12    0.078168       0.000000
      8      13   -0.048692       0.000000

                          SUMMARY OF TDDFT RESULTS

   STATE             ENERGY     EXCITATION  TRANSITION DIPOLE, A.U.  OSCILLATOR
   0 ->             HARTREE          EV         X       Y       Z     STRENGTH
   0  A          -78.3220624836    0.000
   1  A          -78.3271209786   -0.138     0.5440 -0.2524 -0.1095   -0.0013
   2  A          -78.0926152995    6.244     0.0721  0.2180  0.0902    0.0093
   3  A          -78.0902219640    6.309     0.1020 -0.3270 -0.4131    0.0445
  
 TRANSITION        EXCITATION            TRANSITION DIPOLE, A.U.     OSCILLATOR
                       EV              X       Y       Z       DIP    STRENGTH

  1  ->  2           6.381          0.5843 -0.3070  0.0493   0.6618    0.0685
  1  ->  3           6.446          0.1957  0.2057  0.2011   0.3480    0.0191
  2  ->  3           0.065         -1.2156  0.2540  0.2631   1.2694    0.0026

 SELECTING EXCITED STATE IROOT=   1 AT E=      -78.3271209786
 AS THE STATE OF INTEREST.

 ..... DONE WITH TD-DFT EXCITATION ENERGIES .....
 STEP CPU TIME =     7.52 TOTAL CPU TIME =        415.2 (      6.9 MIN)
 TOTAL WALL CLOCK TIME=        432.4 SECONDS, CPU UTILIZATION IS    96.02%

 -----------------------------------------------------------------------
                   TD-DFT ENERGY GRADIENT CALCULATION
                   CODED BY MAHITO CHIBA (AIST, JAPAN)
 -----------------------------------------------------------------------

    -------------------------
       START Z-VECTOR LOOP
    -------------------------
 INITIAL ERROR =  9.618E-02, MUST CONVERGE TO 1.000E-10
 ITER# 1 ERROR =  5.738E-02
 ITER# 2 ERROR =  1.091E-01
 ITER# 3 ERROR =  1.519E-02
 ITER# 4 ERROR =  9.564E-04
 ITER# 5 ERROR =  1.180E-04
 ITER# 6 ERROR =  9.818E-06
 ITER# 7 ERROR =  4.073E-07
 ITER# 8 ERROR =  1.860E-08
 ITER# 9 ERROR =  1.272E-09
 ITER#10 ERROR =  6.210E-11
    -------------------------
        Z-VECTOR CONVERGED          
    -------------------------
 MAXIMUM MEMORY DURING TDDFT RESPONSES=    401220 WORDS.
 ..... DONE WITH TD-DFT EXCITED STATE RESPONSE AND DENSITY MATRIX .....
 STEP CPU TIME =     8.40 TOTAL CPU TIME =        423.6 (      7.1 MIN)
 TOTAL WALL CLOCK TIME=        441.1 SECONDS, CPU UTILIZATION IS    96.03%
 ..... END OF 1-ELECTRON GRADIENT ......
 STEP CPU TIME =     0.01 TOTAL CPU TIME =        423.6 (      7.1 MIN)
 TOTAL WALL CLOCK TIME=        441.1 SECONDS, CPU UTILIZATION IS    96.03%
 MEMORY FOR GRID POINT CONTRIBUTIONS TO THE TD-DFT GRADIENT=   2095798 WORDS.
 STEP CPU TIME =    11.70 TOTAL CPU TIME =        435.3 (      7.3 MIN)
 TOTAL WALL CLOCK TIME=        453.2 SECONDS, CPU UTILIZATION IS    96.05%
 ...... END OF 2-ELECTRON GRADIENT ......
 STEP CPU TIME =     0.21 TOTAL CPU TIME =        435.5 (      7.3 MIN)
 TOTAL WALL CLOCK TIME=        453.4 SECONDS, CPU UTILIZATION IS    96.05%

 ENERGY GAP=   -0.0050584951

 GRADIENT FOR STATE IXROOT/IXSTAT=     0    0

 UNITS ARE HARTREE/BOHR    E'X               E'Y               E'Z 
    1 C               -0.075220542      -0.010232482      -0.003238271
    2 C                0.043147008       0.014355562      -0.011868080
    3 H               -0.003086575       0.027074570       0.041093371
    4 H                0.000111598      -0.033474771      -0.023253505
    5 H                0.006471292      -0.025294065       0.038717989
    6 H                0.028577219       0.027571186      -0.041451504

 GRADIENT FOR STATE IXROOT/IXSTAT=     1    1

 UNITS ARE HARTREE/BOHR    E'X               E'Y               E'Z 
    1 C                0.345789928       0.044751080       0.014747329
    2 C               -0.150764140      -0.280457855      -0.056148082
    3 H               -0.055896904      -0.044500198      -0.092192026
    4 H               -0.046320826       0.243660269       0.116433362
    5 H               -0.020938040       0.142423817      -0.139059478
    6 H               -0.071870019      -0.105877113       0.156218895

 GRADIENT DIFFERENCE VECTOR (X)

 UNITS ARE HARTREE/BOHR    E'X               E'Y               E'Z 
    1 C                0.421010470       0.054983562       0.017985600
    2 C               -0.193911148      -0.294813418      -0.044280002
    3 H               -0.052810329      -0.071574768      -0.133285397
    4 H               -0.046432424       0.277135041       0.139686867
    5 H               -0.027409332       0.167717881      -0.177777467
    6 H               -0.100447237      -0.133448298       0.197670398

 ESTIMATED Y

                           E_X               E_Y               E_Z 
    1 C                0.351755700       0.243969048      -0.002361092
    2 C               -0.316948301      -0.282047314       0.307708345
    3 H                0.034676333       0.312631971       0.119054382
    4 H               -0.044311507      -0.172760815      -0.366260916
    5 H                0.008265563      -0.340145905       0.154948626
    6 H               -0.033437789       0.238353016      -0.213089345

 ORTHO-NORMALIZED Y

                           E_X               E_Y               E_Z 
    1 C                0.355302292       0.246428876      -0.002384898
    2 C               -0.320143945      -0.284891068       0.310810827
    3 H                0.035025958       0.315784096       0.120254753
    4 H               -0.044758279      -0.174502683      -0.369953757
    5 H                0.008348901      -0.343575440       0.156510902
    6 H               -0.033774927       0.240756220      -0.215237827

 OVERLAP BETWEEN       NORMALIZED X AND Y=   0.0000000000
 OVERLAP BETWEEN ORTHO-NORMALIZED X AND Y=   0.0000000000

 MEAN GRADIENT VECTOR

 UNITS ARE HARTREE/BOHR    E'X               E'Y               E'Z 
    1 C                0.135284693       0.017259299       0.005754529
    2 C               -0.053808566      -0.133051147      -0.034008081
    3 H               -0.029491740      -0.008712814      -0.025549327
    4 H               -0.023104614       0.105092749       0.046589928
    5 H               -0.007233374       0.058564876      -0.050170744
    6 H               -0.021646400      -0.039152964       0.057383695

 GRADIENT INSIDE BRANCHING PLANE

                           E_X               E_Y               E_Z 
    1 C               -0.005698528      -0.000744222      -0.000243442
    2 C                0.002624657       0.003990406       0.000599346
    3 H                0.000714807       0.000968790       0.001804066
    4 H                0.000628480      -0.003751123      -0.001890712
    5 H                0.000370995      -0.002270122       0.002406282
    6 H                0.001359590       0.001806271      -0.002675540

 GRADIENT INSIDE INTERSECTION SPACE

 UNITS ARE HARTREE/BOHR    E'X               E'Y               E'Z 
    1 C               -0.009524086      -0.002930702      -0.000319488
    2 C                0.013888171      -0.031417907      -0.021002510
    3 H               -0.011835931       0.013501973       0.018807761
    4 H               -0.007098328       0.012380145       0.001661045
    5 H                0.001993060       0.003977183       0.009018040
    6 H                0.012577114       0.004489308      -0.008164848

 PROJECTED GRADIENT:= F + P*G
 UNIT=HARTREE/BOHR MAY BE INAPPROPRIATE UNLESS F=0.

 UNITS ARE HARTREE/BOHR    E'X               E'Y               E'Z 
    1 C               -0.015222615      -0.003674924      -0.000562930
    2 C                0.016512828      -0.027427501      -0.020403164
    3 H               -0.011121124       0.014470763       0.020611827
    4 H               -0.006469848       0.008629023      -0.000229667
    5 H                0.002364055       0.001707061       0.011424322
    6 H                0.013936703       0.006295579      -0.010840388

          NSERCH= 14     ENERGY=     -78.3271210

                                 -----------------------
                                 GRADIENT (HARTREE/BOHR)
                                 -----------------------
        ATOM     ZNUC       DE/DX         DE/DY         DE/DZ
 --------------------------------------------------------------
    1  C            6.0    -0.0152226    -0.0036749    -0.0005629
    2  C            6.0     0.0165128    -0.0274275    -0.0204032
    3  H            1.0    -0.0111211     0.0144708     0.0206118
    4  H            1.0    -0.0064698     0.0086290    -0.0002297
    5  H            1.0     0.0023641     0.0017071     0.0114243
    6  H            1.0     0.0139367     0.0062956    -0.0108404

          MAXIMUM GRADIENT = 0.0274275    RMS GRADIENT = 0.0130202

 NSERCH:  14  E=      -78.3271209786  GRAD. MAX=  0.0274275  R.M.S.=  0.0130202

          HESSIAN UPDATED USING THE BFGS FORMULA
          WARNING! HEREDITARY POSITIVE DEFINITENESS ENDANGERED
 LOCAL CURVATURE   1 OF THE APPROXIMATE HESSIAN HAS EIGENVALUE=   -0.181239
 *** THIS MODE HAS AN INCORRECT CURVATURE ***
 THE COMPONENTS OF THIS MODE FOLLOWS:
        0.138505       0.042023       0.024711      -0.268716       0.484274
        0.335369       0.126405      -0.398270       0.089653      -0.159520
        0.191785      -0.288691      -0.151373      -0.010293      -0.090695
        0.314700      -0.309518      -0.070347
 LOCAL CURVATURE   2 OF THE APPROXIMATE HESSIAN HAS EIGENVALUE=   -0.060229
 *** THIS MODE HAS AN INCORRECT CURVATURE ***
 THE COMPONENTS OF THIS MODE FOLLOWS:
       -0.201054       0.238166       0.017001      -0.216778      -0.226156
       -0.485783       0.185525       0.026987       0.274990      -0.320018
        0.229006      -0.002463       0.265123      -0.049291       0.298770
        0.287202      -0.218711      -0.102515
             ACTUAL ENERGY CHANGE WAS  -0.0124443657
          PREDICTED ENERGY CHANGE WAS  -0.0110175025 RATIO=  1.130
          TRIM/QA LAMBDA FOR NON-TS MODES =  -0.29923022
          TRIM/QA STEP HAS LENGTH         =   0.282843
          RADIUS OF STEP TAKEN=   0.28284  CURRENT TRUST RADIUS=   0.28284

 BEGINNING GEOMETRY SEARCH POINT NSERCH=  15 ...

 COORDINATES OF ALL ATOMS ARE (ANGS)
   ATOM   CHARGE       X              Y              Z
 ------------------------------------------------------------
 C           6.0  -0.0423099003  -0.0314997536  -0.0080265779
 C           6.0  -1.4377609176   0.2743895172   0.1877578724
 H           1.0  -1.8807410123  -0.7188653461   0.6075984208
 H           1.0  -2.0401864819   0.4611946533  -0.7693631209
 H           1.0   0.6429761954   0.4771831796   0.6362175319
 H           1.0   0.5750016167  -0.7236898704  -0.6942774363

          INTERNUCLEAR DISTANCES (ANGS.)
          ------------------------------

                1 C          2 C          3 H          4 H          5 H     

   1 C       0.0000000    1.4419374 *  2.0570111 *  2.1940583 *  1.0693109 *
   2 C       1.4419374 *  0.0000000    1.1657841 *  1.1462519 *  2.1381553 *
   3 H       2.0570111 *  1.1657841 *  0.0000000    1.8204361 *  2.7929375 *
   4 H       2.1940583 *  1.1462519 *  1.8204361 *  0.0000000    3.0290716  
   5 H       1.0693109 *  2.1381553 *  2.7929375 *  3.0290716    0.0000000  
   6 H       1.1537508 *  2.4135786 *  2.7794920 *  2.8720721 *  1.7935812 *

                6 H     

   1 C       1.1537508 *
   2 C       2.4135786 *
   3 H       2.7794920 *
   4 H       2.8720721 *
   5 H       1.7935812 *
   6 H       0.0000000  

  * ... LESS THAN  3.000

 ...... END OF ONE-ELECTRON INTEGRALS ......
 STEP CPU TIME =     0.00 TOTAL CPU TIME =        435.5 (      7.3 MIN)
 TOTAL WALL CLOCK TIME=        453.4 SECONDS, CPU UTILIZATION IS    96.05%
 TOTAL NUMBER OF NONZERO TWO-ELECTRON INTEGRALS =              262724
         18 INTEGRAL RECORDS WERE STORED ON DISK FILE  8.
  ...... END OF TWO-ELECTRON INTEGRALS .....
 STEP CPU TIME =     0.04 TOTAL CPU TIME =        435.6 (      7.3 MIN)
 TOTAL WALL CLOCK TIME=        453.5 SECONDS, CPU UTILIZATION IS    96.05%

          --------------------------
            R-BHHLYP SCF CALCULATION
          --------------------------
         DENSITY MATRIX CONVERGENCE THRESHOLD=  1.00E-06
     COARSE -> FINE DFT GRID SWITCH THRESHOLD=  3.00E-04 (SWITCH IN $DFT)
                   HF -> DFT SWITCH THRESHOLD=  5.00E-03 (SWOFF IN $DFT)

 DFT CODE IS SWITCHING FROM THE FINE GRID NRAD= 96,  NLEB=  302
                      TO THE COARSE GRID NRAD0= 24, NLEB0=  110

 ITER EX DEM     TOTAL ENERGY        E CHANGE  DENSITY CHANGE    DIIS ERROR
          * * *   INITIATING DIIS PROCEDURE   * * *
   1  0  0      -78.3158745804   -78.3158745804   0.068114160   0.029125527
   2  1  0      -78.3236811109    -0.0078065305   0.030529083   0.015521288
   3  2  0      -78.3242079824    -0.0005268715   0.013301000   0.019355280
   4  3  0      -78.3256426004    -0.0014346180   0.005117542   0.003162851
   5  4  0      -78.3257722800    -0.0001296796   0.006355986   0.003846476
   6  5  0      -78.3259279185    -0.0001556385   0.011032116   0.002520691
   7  6  0      -78.3261005454    -0.0001726268   0.017125352   0.001385939
   8  7  0      -78.3262664939    -0.0001659485   0.017397930   0.001113070
   9  8  0      -78.3264250225    -0.0001585286   0.026068053   0.001618315
  10  9  0      -78.3261862767     0.0002387457   0.043442316   0.001476926
  11 10  0      -78.3251735189     0.0010127579   0.028571635   0.006394868
  12 11  0      -78.3260024561    -0.0008289373   0.001175262   0.002412545
  13 12  0      -78.3259834685     0.0000189876   0.000059868   0.002513134
 DFT CODE IS SWITCHING BACK TO THE FINE GRID
          * * *   INITIATING DIIS PROCEDURE   * * *
  14 13  0      -78.3263713673    -0.0003878988   0.004971252   0.002546676
  15 14  0      -78.3264168573    -0.0000454899   0.001080543   0.003235303
  16 15  0      -78.3264453539    -0.0000284966   0.004021508   0.001906674
  17 16  0      -78.3264986999    -0.0000533460   0.010648221   0.001667503
  18 17  0      -78.3266142122    -0.0001155123   0.019374848   0.001077264
  19 18  0      -78.3267894734    -0.0001752612   0.011687205   0.001500686
  20 19  0      -78.3269309128    -0.0001414394   0.018899915   0.002211268
  21 20  0      -78.3267160349     0.0002148778   0.026922050   0.001457054
  22 21  0      -78.3264336429     0.0002823921   0.013999366   0.002345831
  23 22  0      -78.3266013689    -0.0001677260   0.001555136   0.001538370
  24 23  0      -78.3265866650     0.0000147038   0.000979948   0.001574753
  25 24  0      -78.3265964294    -0.0000097644   0.001121595   0.001537827
  26 25  0      -78.3266072530    -0.0000108236   0.000680500   0.001502728
  27 26  0      -78.3266007662     0.0000064869   0.001271835   0.001522157
  28 27  0      -78.3265883573     0.0000124089   0.001223922   0.001563279
  29 28  0      -78.3265768334     0.0000115238   0.008270180   0.001585210
  30 29  0      -78.3266550651    -0.0000782317   0.001596088   0.001361268

 SCF IS UNCONVERGED, TOO MANY ITERATIONS
     TIME TO FORM FOCK OPERATORS=      17.5 SECONDS (       0.6 SEC/ITER)
     TIME TO SOLVE SCF EQUATIONS=       0.0 SECONDS (       0.0 SEC/ITER)

 FINAL R-BHHLYP ENERGY IS        0.0000000000 AFTER  30 ITERATIONS
 DFT EXCHANGE + CORRELATION ENERGY =        -6.3072631815
 TOTAL ELECTRON NUMBER             =        15.9998957433
 ...... END OF RHF CALCULATION ......
 STEP CPU TIME =    17.65 TOTAL CPU TIME =        453.2 (      7.6 MIN)
 TOTAL WALL CLOCK TIME=        473.3 SECONDS, CPU UTILIZATION IS    95.76%

           ***** FAILURE TO LOCATE STATIONARY POINT, SCF HAS NOT CONVERGED
     UPDATED HESSIAN, GEOMETRY, AND VECTORS WILL BE PUNCHED FOR RESTART
 EXECUTION OF GAMESS TERMINATED -ABNORMALLY- AT 16:50:17 11-MAR-2022    
              2098642  WORDS OF DYNAMIC MEMORY USED
 STEP CPU TIME =     0.00 TOTAL CPU TIME =        453.2 (      7.6 MIN)
 TOTAL WALL CLOCK TIME=        473.3 SECONDS, CPU UTILIZATION IS    95.76%
 DDI Process 0: error code 911
 ddikick.x: application process 0 quit unexpectedly.
 ddikick.x: Fatal error detected.
 The error is most likely to be in the application, so check for
 input errors, disk space, memory needs, application bugs, etc.
 ddikick.x will now clean up all processes, and exit...
 ddikick.x: Sending kill signal to DDI processes.
 ddikick.x: Execution terminated due to error(s).
