
 Distributed Data Interface kickoff program.
 Initiating 1 compute processes on 1 nodes to run the following command:
 /usr/local/gamess/gamess.00.x /home/webmo/webmo/yamnor/74/input 

          *******************************************************
          *                                                     *
          *      GAMESS VERSION = 30 SEP 2021 (R2 Patch 1)      *
          *                                                     *
          *              doi.org/10.1063/5.0005188              *
          *                                                     *
          **************** 64 BIT LINUX VERSION *****************

  GAMESS HAS BEEN MADE POSSIBLE WITH IMPORTANT CONTRIBUTIONS FROM
  THE FOLLOWING INDIVIDUALS (IN ALPHABETICAL ORDER):

     IVANA ADAMOVIC, CHRISTINE AIKENS, TOMOKO AKAMA,
     YURI ALEXEEV, YURIKO AOKI, POOJA ARORA, TOSHIO ASADA,
     ANDREY ASADCHEV, KIM K. BALDRIDGE, PRADIPTA BANDYOPADHYAY,
     TAYLOR A. BARNES, MARIA BARYSZ, ROB BELL,
     JONATHAN BENTZ, COLLEEN BERTONI,
     JERRY A. BOATZ, BRETT BODE, KURT BRORSEN, KURT R. BRORSEN,
     LAIMUTIS BYTAUTAS, CALEB CARLIN, LAURA CARRINGTON,
     GALINA CHABAN, BENOIT CHAMPAGNE, WEI CHEN, MAHITO CHIBA,
     DAN CHIPMAN, CHEOL HO CHOI, TANNER CULPITT,
     DIPAYAN DATTA, PAUL DAY, ALBERT DEFUSCO,
     NUWAN DESILVA, J. EMILIANO DEUSTUA,
     TIM DUDLEY, MICHEL DUPUIS, STEVEN T. ELBERT,
     DMITRI FEDOROV, ALEX FINDLATER, GRAHAM FLETCHER,
     MARK FREITAG, CHRISTIAN FRIEDL, DAVID GARMER,
     IGOR S. GERASIMOV, KURT GLAESEMANN, MARK S. GORDON,
     JEFFREY GOUR, FENG LONG GU, EMILIE B. GUIDEZ,
     ANASTASIA GUNINA, SHARON HAMMES-SCHIFFER, MASATAKE HARUTA,
     KIMIHIKO HIRAO, YASUHIRO IKABATA, TZVETELIN IORDANOV,
     STEPHAN IRLE, KAZUYA ISHIMURA, JOE IVANIC, FRANK JENSEN,
     JAN H. JENSEN, VISVALDAS KAIRYS, MUNEAKI KAMIYA,
     MICHIO KATOUDA, NAOAKI KAWAKAMI, DAN KEMP, BERNARD KIRTMAN,
     KAZUO KITAURA, MARIUSZ KLOBUKOWSKI, MASATO KOBAYASHI,
     PRAKASHAN KORAMBATH, JACEK KORCHOWIEC, SHIRO KOSEKI,
     KAROL KOWALSKI, JIMMY KROMANN, STANISLAW KUCHARSKI,
     HENRY KURTZ, SAROM SOK LEANG, HUI LI, SHUHUA LI, WEI LI,
     JESSE LUTZ, ALEKSANDR O. LYKHIN, MARCIN MAKOWSKI,
     JOANI MATO, NIKITA MATSUNAGA, BENEDETTA MENNUCCI,
     GRANT MERRILL, NORIYUKI MINEZAWA, VLADIMIR MIRONOV,
     EISAKU MIYOSHI, JOHN A. MONTGOMERY JR., HIROTOSHI MORI,
     JONATHAN MULLIN, MONIKA MUSIAL, SHIGERU NAGASE,
     TAKESHI NAGATA, HIROMI NAKAI, TAKAHITO NAKAJIMA,
     YUYA NAKAJIMA, HARUYUKI NAKANO, HIROYA NAKATA, SEAN NEDD,
     HEATHER NETZLOFF, KIET A. NGUYEN, YOSHIO NISHIMOTO,
     BOSILJKA NJEGIC, RYAN OLSON, MIKE PAK, ROBERTO PEVERATI,
     BUU PHAM, PIOTR PIECUCH, ANNA POMOGAEVA, DAVID POOLE,
     SPENCER PRUITT, OLIVIER QUINET, LUKE ROSKOP,
     KLAUS RUEDENBERG, ANDREW SAND, TOSAPORN SATTASATHUCHANA,
     NOZOMI SAWADA, MICHAEL W. SCHMIDT, PATRICK E. SCHNEIDER,
     JUNJI SEINO, PRACHI SHARMA, JUN SHEN, JIM SHOEMAKER,
     YINAN SHU, DEJUN SI, JONATHAN SKONE, LYUDMILA SLIPCHENKO,
     TONY SMITH, JIE SONG, MARK SPACKMAN, CASPER STEINMANN,
     WALT STEVENS, PEIFENG SU, SHUJUN SU, CHET SWALINA,
     TETSUYA TAKETSUGU, ZHEN TAO, NANDUN THELLAMUREGE
     SEIKEN TOKURA, JACOPO TOMASI, TSUGUKI TOUMA, TAKAO TSUNEDA,
     HIROAKI UMEDA, JORGE LUIS GALVEZ VALLEJO, YALI WANG,
     SIMON WEBB, AARON WEST, THERESA L. WINDUS, MARTA WLOCH,
     PENG XU, KIYOSHI YAGI, SUSUMU YANAGISAWA, YANG YANG,
     SOOHAENG YOO, TAKESHI YOSHIKAWA, FEDERICO ZAHARIEV,
     TOBY ZENG

  WHO ARE SUPPORTED BY THEIR INSTITUTION/UNIVERSITY/COMPANY/GROUP
  (IN ALPHABETICAL ORDER):

     EP ANALYTICS, FACULTES UNIVERSITAIRES NOTRE-DAME DE LA PAIX,
     INSTITUTE FOR MOLECULAR SCIENCE, IOWA STATE UNIVERSITY,
     JACKSON STATE UNIVERSITY, JOHANNES KEPLER UNIVERSITY LINZ,
     KYUSHU UNIVERSITY, MICHIGAN STATE UNIVERSITY,
     MIE UNIVERSITY, THE MOLECULAR SCIENCES SOFTWARE INSTITUTE,
     MOSCOW STATE UNIVERSITY,
     N. COPERNICUS UNIVERSITY, NAGOYA UNIVERSITY,
     NANJING UNIVERSITY, NAT. INST. OF ADVANCED INDUSTRIAL
     SCIENCE AND TECHNOLOGY, NATIONAL INST. OF STANDARDS AND
     TECHNOLOGY, NESMEYANOV INSTITUTE OF ORGANOELEMENT COMPOUNDS
     OF RUSSIAN ACADEMY OF SCIENCES, OSAKA PREFECTURE UNIVERSITY,
     PENNSYLVANIA STATE UNIVERSITY, TOKYO INSTITUTE OF TECHNOLOGY,
     UNIVERSITY OF AARHUS, UNIVERSITY OF ALBERTA,
     UNIVERSITY OF CALIFORNIA AT SANTA BARBARA,
     UNIVERSITY OF COPENHAGEN, UNIVERSITY OF IOWA,
     UNIVERSITY OF MEMPHIS, UNIVERSITY OF MINNESOTA,
     UNIVERSITY OF NEBRASKA, UNIVERSITY OF NEW ENGLAND,
     UNIVERSITY OF NOTRE DAME, UNIVERSITY OF PISA,
     UNIVERSITY OF SILESIA, UNIVERSITY OF TOKYO,
     UNIVERSITY OF ZURICH, WASEDA UNIVERSITY, YALE UNIVERSITY

  GAMESS SOFTWARE MANAGEMENT TEAM FOR THIS RELEASE:
     MARK S. GORDON (TEAM LEAD),
     BRETT BODE (SENIOR ADVISOR),
     GIUSEPPE BARCA,
     COLLEEN BERTONI,
     KRISTOPHER KEIPERT (ADVISOR),
     SAROM S. LEANG (DEVELOPMENT LEAD),
     BUU PHAM,
     JORGE LUIS GALVEZ VALLEJO (WEBSITE ADMINISTRATOR),
     PENG XU

 EXECUTION OF GAMESS BEGUN 20:41:03 10-MAR-2022    

            ECHO OF THE FIRST FEW INPUT CARDS -
 INPUT CARD> $CONTRL                                                                        
 INPUT CARD>   RUNTYP=CONICAL                                                               
 INPUT CARD>   SCFTYP=ROHF                                                                  
 INPUT CARD>   DFTTYP=BHHLYP                                                                
 INPUT CARD>   TDDFT=SPNFLP                                                                 
 INPUT CARD>   ICHARG=0                                                                     
 INPUT CARD>   MULT=3                                                                       
 INPUT CARD>   COORD=UNIQUE                                                                 
 INPUT CARD> $END                                                                           
 INPUT CARD> $SYSTEM                                                                        
 INPUT CARD>   MWORDS=128                                                                   
 INPUT CARD> $END                                                                           
 INPUT CARD> $BASIS                                                                         
 INPUT CARD>   GBASIS=N31                                                                   
 INPUT CARD>   NGAUSS=6                                                                     
 INPUT CARD>   NDFUNC=1                                                                     
 INPUT CARD> $END                                                                           
 INPUT CARD> $TDDFT                                                                         
 INPUT CARD>   NSTATE=3                                                                     
 INPUT CARD>   TAMMD=.T.                                                                    
 INPUT CARD> $END                                                                           
 INPUT CARD> $CONICL                                                                        
 INPUT CARD>   IXROOT(1)=1,3                                                                
 INPUT CARD> $END                                                                           
 INPUT CARD> $DATA                                                                          
 INPUT CARD>C2H4                                                                            
 INPUT CARD>C1 1                                                                            
 INPUT CARD>C 6  0.00000000  0.00000000  0.00000000                                         
 INPUT CARD>C 6 -1.33260400  0.21233700 -0.19855800                                         
 INPUT CARD>H 1 -2.13708700 -0.34499100  0.40478700                                         
 INPUT CARD>H 1 -2.05422400  0.80932800 -0.91868600                                         
 INPUT CARD>H 1  0.64484400  0.79142400  0.27198600                                         
 INPUT CARD>H 1  0.51926800 -0.26991700 -0.91636200                                         
 INPUT CARD> $END                                                                           
 INPUT CARD>                                                                                
  128000000 WORDS OF MEMORY AVAILABLE

     BASIS OPTIONS
     -------------
     GBASIS=N31          IGAUSS=       6      POLAR=POPN31  
     NDFUNC=       1     NFFUNC=       0     DIFFSP=       F
     NPFUNC=       0      DIFFS=       F     BASNAM=        


     RUN TITLE
     ---------
 C2H4                                                                            

 THE POINT GROUP OF THE MOLECULE IS C1      
 THE ORDER OF THE PRINCIPAL AXIS IS     1

 ATOM      ATOMIC                      COORDINATES (BOHR)
           CHARGE         X                   Y                   Z
 C           6.0     0.0000000000        0.0000000000        0.0000000000
 C           6.0    -2.5182564101        0.4012587471       -0.3752202127
 H           1.0    -4.0385088419       -0.6519384582        0.7649365134
 H           1.0    -3.8819204774        1.5294081542       -1.7360648088
 H           1.0     1.2185784648        1.4955745001        0.5139790125
 H           1.0     0.9812742342       -0.5100691694       -1.7316730856

          INTERNUCLEAR DISTANCES (ANGS.)
          ------------------------------

                1 C          2 C          3 H          4 H          5 H     

   1 C       0.0000000    1.3639449 *  2.2022743 *  2.3914080 *  1.0564810 *
   2 C       1.3639449 *  0.0000000    1.1497098 *  1.1814051 *  2.1135406 *
   3 H       2.2022743 *  1.1497098 *  0.0000000    1.7580954 *  3.0080251  
   4 H       2.3914080 *  1.1814051 *  1.7580954 *  0.0000000    2.9500828 *
   5 H       1.0564810 *  2.1135406 *  3.0080251    2.9500828 *  0.0000000  
   6 H       1.0872965 *  2.0438301 *  2.9677083 *  2.7906337 *  1.5982444 *

                6 H     

   1 C       1.0872965 *
   2 C       2.0438301 *
   3 H       2.9677083 *
   4 H       2.7906337 *
   5 H       1.5982444 *
   6 H       0.0000000  

  * ... LESS THAN  3.000


     ATOMIC BASIS SET
     ----------------
 THE CONTRACTED PRIMITIVE FUNCTIONS HAVE BEEN UNNORMALIZED
 THE CONTRACTED BASIS FUNCTIONS ARE NOW NORMALIZED TO UNITY

  SHELL TYPE  PRIMITIVE        EXPONENT          CONTRACTION COEFFICIENT(S)

 C         

      1   S       1          3047.5248800    0.001834737132
      1   S       2           457.3695180    0.014037322813
      1   S       3           103.9486850    0.068842622264
      1   S       4            29.2101553    0.232184443216
      1   S       5             9.2866630    0.467941348435
      1   S       6             3.1639270    0.362311985337

      2   L       7             7.8682723   -0.119332419775    0.068999066591
      2   L       8             1.8812885   -0.160854151696    0.316423960957
      2   L       9             0.5442493    1.143456437840    0.744308290898

      3   L      10             0.1687145    1.000000000000    1.000000000000

      4   D      11             0.8000000    1.000000000000

 C         

      5   S      12          3047.5248800    0.001834737132
      5   S      13           457.3695180    0.014037322813
      5   S      14           103.9486850    0.068842622264
      5   S      15            29.2101553    0.232184443216
      5   S      16             9.2866630    0.467941348435
      5   S      17             3.1639270    0.362311985337

      6   L      18             7.8682723   -0.119332419775    0.068999066591
      6   L      19             1.8812885   -0.160854151696    0.316423960957
      6   L      20             0.5442493    1.143456437840    0.744308290898

      7   L      21             0.1687145    1.000000000000    1.000000000000

      8   D      22             0.8000000    1.000000000000

 H         

      9   S      23            18.7311370    0.033494604338
      9   S      24             2.8253944    0.234726953484
      9   S      25             0.6401217    0.813757326146

     10   S      26             0.1612778    1.000000000000

 H         

     11   S      27            18.7311370    0.033494604338
     11   S      28             2.8253944    0.234726953484
     11   S      29             0.6401217    0.813757326146

     12   S      30             0.1612778    1.000000000000

 H         

     13   S      31            18.7311370    0.033494604338
     13   S      32             2.8253944    0.234726953484
     13   S      33             0.6401217    0.813757326146

     14   S      34             0.1612778    1.000000000000

 H         

     15   S      35            18.7311370    0.033494604338
     15   S      36             2.8253944    0.234726953484
     15   S      37             0.6401217    0.813757326146

     16   S      38             0.1612778    1.000000000000

 TOTAL NUMBER OF BASIS SET SHELLS             =   16
 NUMBER OF CARTESIAN GAUSSIAN BASIS FUNCTIONS =   38
 NUMBER OF ELECTRONS                          =   16
 CHARGE OF MOLECULE                           =    0
 SPIN MULTIPLICITY                            =    3
 NUMBER OF OCCUPIED ORBITALS (ALPHA)          =    9
 NUMBER OF OCCUPIED ORBITALS (BETA )          =    7
 TOTAL NUMBER OF ATOMS                        =    6
 THE NUCLEAR REPULSION ENERGY IS       32.5222201000

 SELECTED MURRAY-HANDY-LAMING RADIAL GRID

 LEGACY BECKE'S FUZZY CELL METHOD

 SELECTED ORIGINAL BECKE'S PARTITION FUNCTION

     LEBEDEV GRID-BASED DFT OPTIONS
     ------------------------------
     DFTTYP=BHHLYP  
     NRAD  =      96     NLEB  =     302
     NRAD0 =      24     NLEB0 =     110
     SWOFF =    5.00E-03 (PURE SCF -> DFT)
     SWITCH=    3.00E-04 (COARSE -> TIGHT GRID)
     THRESH=    0.00E+00 GTHRE=    1.00E+00

 GRIMME'S EMPIRICAL DISPERSION CORRECTION= F

     $CONTRL OPTIONS
     ---------------
 SCFTYP=ROHF         RUNTYP=CONICAL      EXETYP=RUN     
 MPLEVL=       0     CITYP =NONE         CCTYP =NONE         VBTYP =NONE    
 DFTTYP=BHHLYP       TDDFT =SPNFLP  
 MULT  =       3     ICHARG=       0     NZVAR =       0     COORD =UNIQUE  
 PP    =NONE         RELWFN=NONE         LOCAL =NONE         NUMGRD=       F
 ISPHER=      -1     NOSYM =       0     MAXIT =      30     UNITS =ANGS    
 PLTORB=       F     MOLPLT=       F     AIMPAC=       F     FRIEND=        
 NPRINT=       7     IREST =       0     GEOM  =INPUT   
 NORMF =       0     NORMP =       0     ITOL  =      20     ICUT  =       9
 INTTYP=BEST         GRDTYP=BEST         QMTTOL= 1.0E-06

     $SYSTEM OPTIONS
     ---------------
  REPLICATED MEMORY=   128000000 WORDS (ON EVERY NODE).
 DISTRIBUTED MEMDDI=           0 MILLION WORDS IN AGGREGATE,
 MEMDDI DISTRIBUTED OVER   1 PROCESSORS IS           0 WORDS/PROCESSOR.
 TOTAL MEMORY REQUESTED ON EACH PROCESSOR=   128000000 WORDS.
 TIMLIM=      525600.00 MINUTES, OR     365.0 DAYS.
 PARALL= F  BALTYP=  DLB     KDIAG=    0  COREFL= F
 MXSEQ2=     300 MXSEQ3=     150  mem10=         0  mem22=         0

          ----------------
          PROPERTIES INPUT
          ----------------

     MOMENTS            FIELD           POTENTIAL          DENSITY
 IEMOM =       1   IEFLD =       0   IEPOT =       0   IEDEN =       0
 WHERE =COMASS     WHERE =NUCLEI     WHERE =NUCLEI     WHERE =NUCLEI  
 OUTPUT=BOTH       OUTPUT=BOTH       OUTPUT=BOTH       OUTPUT=BOTH    
 IEMINT=       0   IEFINT=       0                     IEDINT=       0
                                                       MORB  =       0
          EXTRAPOLATION IN EFFECT
          DIIS IN EFFECT
 ORBITAL PRINTING OPTION: NPREO=     1    38     2     1

     -------------------------------
     INTEGRAL TRANSFORMATION OPTIONS
     -------------------------------
     NWORD  =            0
     CUTOFF = 1.0E-09     MPTRAN =       0
     DIRTRF =       F     AOINTS =DUP     

          ----------------------
          INTEGRAL INPUT OPTIONS
          ----------------------
 NOPK  =       1 NORDER=       0 SCHWRZ=       T

          ----------------------
          TDDFT INPUT PARAMETERS
          ----------------------
 NSTATE=       3 IROOT =       1 MULT  =       3
 MAXVEC=      50 NTRIAL=       5 CNVTOL=  1.00E-07
 TDPRP =       F TRNSD =       F TAMMD =       T
 TPA   =       F ALPHA =       F BETA  =       F
 PFREQ =    0.00    0.00
   NRAD=      48   NLEB=     110

     ------------------------------------------
     THE POINT GROUP IS C1 , NAXIS= 1, ORDER= 1
     ------------------------------------------

     DIMENSIONS OF THE SYMMETRY SUBSPACES ARE
 A   =   38

 ..... DONE SETTING UP THE RUN .....
 STEP CPU TIME =     0.01 TOTAL CPU TIME =          0.0 (      0.0 MIN)
 TOTAL WALL CLOCK TIME=          0.0 SECONDS, CPU UTILIZATION IS    41.68%


          -----------------------------
          STATIONARY POINT LOCATION RUN
          -----------------------------

 OBTAINING INITIAL HESSIAN, HESS=GUESS   
 CARTESIAN COORDINATE OPTIMIZATION USING BADGER'S RULE FORCE CONSTANT GUESS

          PARAMETERS CONTROLLING GEOMETRY SEARCH ARE
          METHOD =QA                  UPHESS =BFGS    
          NNEG   =         0          NFRZ   =         0
          NSTEP  =        50          IFOLOW =         1
          HESS   =GUESS               RESTAR =         F
          IHREP  =         0          HSSEND =         F
          NPRT   =         0          NPUN   =         0
          OPTTOL = 1.000E-04          RMIN   = 1.500E-03
          RMAX   = 1.000E-01          RLIM   = 7.000E-02
          DXMAX  = 2.000E-01          PURIFY =         F
          MOVIE  =         F          TRUPD  =         T
          TRMAX  = 3.000E-01          TRMIN  = 5.000E-02
          ITBMAT =         5          STPT   =         F
          STSTEP = 1.000E-02          PROJCT=          T


          ---------------------------------------
          CONICAL INTERSECTION POINT LOCATION RUN
          ---------------------------------------

          IXROOT(1)=          1          IXROOT(2)=          3
          SYMOFF   =          T          DEBUG    =          F
          TOLSTP   =  1.000E-06          TOLGRD   =  5.000E-03
          ALPHA    =  2.000E-02          SIGMA    =  3.500E+00

 CONICAL INTERSECTION SEARCH BY BRANCHING PLANE UPDATING METHOD

 REFERENCE: S. MAEDA, K. OHNO, AND K. MOROKUMA,
            J. CHEM. THEORY COMPUT. 6, 1538 (2010).

 PROGRAMMED BY NORIYUKI MINEZAWA


 BEGINNING GEOMETRY SEARCH POINT NSERCH=   0 ...

 COORDINATES OF ALL ATOMS ARE (ANGS)
   ATOM   CHARGE       X              Y              Z
 ------------------------------------------------------------
 C           6.0   0.0000000000   0.0000000000   0.0000000000
 C           6.0  -1.3326040000   0.2123370000  -0.1985580000
 H           1.0  -2.1370870000  -0.3449910000   0.4047870000
 H           1.0  -2.0542240000   0.8093280000  -0.9186860000
 H           1.0   0.6448440000   0.7914240000   0.2719860000
 H           1.0   0.5192680000  -0.2699170000  -0.9163620000

          ********************
          1 ELECTRON INTEGRALS
          ********************
 ...... END OF ONE-ELECTRON INTEGRALS ......
 STEP CPU TIME =     0.00 TOTAL CPU TIME =          0.0 (      0.0 MIN)
 TOTAL WALL CLOCK TIME=          0.0 SECONDS, CPU UTILIZATION IS    43.45%

          -------------
          GUESS OPTIONS
          -------------
          GUESS =HUCKEL            NORB  =       0          NORDER=       0
          MIX   =       F          PRTMO =       F          PUNMO =       F
          TOLZ  = 1.0E-08          TOLE  = 1.0E-05
          SYMDEN=       F          PURIFY=       F

 INITIAL GUESS ORBITALS GENERATED BY HUCKEL   ROUTINE.
 HUCKEL GUESS REQUIRES     15726 WORDS.

 SYMMETRIES FOR INITIAL GUESS ORBITALS FOLLOW.  ALPHA SET(S).
     9 ORBITALS ARE OCCUPIED (    2 CORE ORBITALS).
     3=A        4=A        5=A        6=A        7=A        8=A        9=A   
    10=A       11=A       12=A       13=A       14=A       15=A       16=A   
    17=A       18=A       19=A   

 SYMMETRIES FOR INITIAL GUESS ORBITALS FOLLOW.   BETA SET(S).
     7 ORBITALS ARE OCCUPIED (    2 CORE ORBITALS).
     3=A        4=A        5=A        6=A        7=A        8=A        9=A   
    10=A       11=A       12=A       13=A       14=A       15=A       16=A   
    17=A   
 ...... END OF INITIAL ORBITAL SELECTION ......
 STEP CPU TIME =     0.00 TOTAL CPU TIME =          0.0 (      0.0 MIN)
 TOTAL WALL CLOCK TIME=          0.0 SECONDS, CPU UTILIZATION IS    40.67%

                    ----------------------
                    AO INTEGRAL TECHNOLOGY
                    ----------------------
     S,P,L SHELL ROTATED AXIS INTEGRALS, REPROGRAMMED BY
        KAZUYA ISHIMURA (IMS) AND JOSE SIERRA (SYNSTAR).
     S,P,D,L SHELL ROTATED AXIS INTEGRALS PROGRAMMED BY
        KAZUYA ISHIMURA (INSTITUTE FOR MOLECULAR SCIENCE).
     S,P,D,F,G SHELL TO TOTAL QUARTET ANGULAR MOMENTUM SUM 5,
        ERIC PROGRAM BY GRAHAM FLETCHER (ELORET AND NASA ADVANCED
        SUPERCOMPUTING DIVISION, AMES RESEARCH CENTER).
     S,P,D,F,G,L SHELL GENERAL RYS QUADRATURE PROGRAMMED BY
        MICHEL DUPUIS (PACIFIC NORTHWEST NATIONAL LABORATORY).

          --------------------
          2 ELECTRON INTEGRALS
          --------------------

 THE -PK- OPTION IS OFF, THE INTEGRALS ARE NOT IN SUPERMATRIX FORM.
 STORING   15000 INTEGRALS/RECORD ON DISK, USING 12 BYTES/INTEGRAL.
 TWO ELECTRON INTEGRAL EVALUATION REQUIRES   90532 WORDS OF MEMORY.
 SCHWARZ INEQUALITY OVERHEAD:       741 INTEGRALS, T=        0.00
 II,JST,KST,LST =  1  1  1  1 NREC =         1 INTLOC =    1
 II,JST,KST,LST =  2  1  1  1 NREC =         1 INTLOC =    2
 II,JST,KST,LST =  3  1  1  1 NREC =         1 INTLOC =   34
 II,JST,KST,LST =  4  1  1  1 NREC =         1 INTLOC =  214
 II,JST,KST,LST =  5  1  1  1 NREC =         1 INTLOC = 1189
 II,JST,KST,LST =  6  1  1  1 NREC =         1 INTLOC = 3244
 II,JST,KST,LST =  7  1  1  1 NREC =         2 INTLOC =  996
 II,JST,KST,LST =  8  1  1  1 NREC =         3 INTLOC = 8256
 II,JST,KST,LST =  9  1  1  1 NREC =         7 INTLOC = 6201
 II,JST,KST,LST = 10  1  1  1 NREC =         8 INTLOC = 6110
 II,JST,KST,LST = 11  1  1  1 NREC =         9 INTLOC = 7510
 II,JST,KST,LST = 12  1  1  1 NREC =        10 INTLOC =10490
 II,JST,KST,LST = 13  1  1  1 NREC =        12 INTLOC =  159
 II,JST,KST,LST = 14  1  1  1 NREC =        13 INTLOC = 6600
 II,JST,KST,LST = 15  1  1  1 NREC =        14 INTLOC =14946
 II,JST,KST,LST = 16  1  1  1 NREC =        16 INTLOC =10279
 SCHWARZ INEQUALITY TEST SKIPPED          27 INTEGRAL BLOCKS.
 TOTAL NUMBER OF NONZERO TWO-ELECTRON INTEGRALS =              262733
         18 INTEGRAL RECORDS WERE STORED ON DISK FILE  8.
  ...... END OF TWO-ELECTRON INTEGRALS .....
 STEP CPU TIME =     0.06 TOTAL CPU TIME =          0.1 (      0.0 MIN)
 TOTAL WALL CLOCK TIME=          0.2 SECONDS, CPU UTILIZATION IS    39.03%

          ---------------------------
            RO-BHHLYP SCF CALCULATION
          ---------------------------

     NUCLEAR ENERGY =        32.5222201000
     MAXIT = 30     NPUNCH=  2     MULT=  3
     EXTRAP=T  DAMP=F  SHIFT=F  RSTRCT=F  DIIS=T  SOSCF=F
         DENSITY MATRIX CONVERGENCE THRESHOLD=  1.00E-06
     COARSE -> FINE DFT GRID SWITCH THRESHOLD=  3.00E-04 (SWITCH IN $DFT)
                   HF -> DFT SWITCH THRESHOLD=  5.00E-03 (SWOFF IN $DFT)
     ROHF CANONICALIZATION PARAMETERS
             C-C     O-O     V-V
     ALPHA -0.5000  0.5000  1.5000
     BETA   1.5000  0.5000 -0.5000
     MEMORY REQUIRED FOR UHF/ROHF ITERS=    270142 WORDS.

 DFT CODE IS SWITCHING FROM THE FINE GRID NRAD= 96,  NLEB=  302
                      TO THE COARSE GRID NRAD0= 24, NLEB0=  110

     EXCHANGE FUNCTIONAL   =B88&HFX   
     CORRELATION FUNCTIONAL=LYP88     
     DFT THRESHOLD         =.230E-07
     GRID CHANGE THRESHOLD =.300E-03
 FOR AN EULER-MACLAURIN QUADRATURE USING  96 RADIAL POINTS:
 SMALLEST GAUSSIAN PRIMITIVE EXPONENT=        0.1612777588 OF TYPE -S-
 ON ATOM NUMBER   3 HAS RADIAL NORMALIZATION=  1.000000
  LARGEST GAUSSIAN PRIMITIVE EXPONENT=     3047.5248800000 OF TYPE -S-
 ON ATOM NUMBER   1 HAS RADIAL NORMALIZATION=  1.000000
 DFT IS SWITCHED OFF, PERFORMING PURE SCF UNTIL SWOFF THRESHOLD IS REACHED.

 ITER EX      TOTAL ENERGY        E CHANGE  DENSITY CHANGE    DIIS ERROR
          * * *   INITIATING DIIS PROCEDURE   * * *
   1  0      -77.6974396502   -77.6974396502   0.133603718   0.317163152
   2  1      -77.9071202890    -0.2096806388   0.052880240   0.026670514
   3  2      -77.9124802565    -0.0053599674   0.010185857   0.011358087
   4  3      -77.9128388989    -0.0003586424   0.003948301   0.003534374
 CONVERGED TO SWOFF, SO DFT CALCULATION IS NOW SWITCHED ON.
          * * *   INITIATING DIIS PROCEDURE   * * *
   5  4      -78.3870746518    -0.4742357529   0.039832410   0.050653798
   6  5      -78.3906237963    -0.0035491445   0.020787021   0.015009759
   7  6      -78.3910158955    -0.0003920992   0.008804222   0.011401198
   8  7      -78.3915145479    -0.0004986524   0.000397730   0.000230991
   9  8      -78.3915147559    -0.0000002080   0.000150107   0.000146331
 DFT CODE IS SWITCHING BACK TO THE FINE GRID
          * * *   INITIATING DIIS PROCEDURE   * * *
  10  9      -78.3912290449     0.0002857110   0.000662195   0.000575166
  11 10      -78.3912296294    -0.0000005846   0.000139198   0.000087925
  12 11      -78.3912296411    -0.0000000116   0.000067771   0.000067828
  13 12      -78.3912296559    -0.0000000149   0.000008990   0.000008738
  14 13      -78.3912296564    -0.0000000004   0.000002417   0.000001492
  15 14      -78.3912296564    -0.0000000000   0.000001096   0.000000991
  16 15      -78.3912296564    -0.0000000000   0.000000183   0.000000098

          -----------------
          DENSITY CONVERGED
          -----------------
     TIME TO FORM FOCK OPERATORS=       6.2 SECONDS (       0.4 SEC/ITER)
     TIME TO SOLVE SCF EQUATIONS=       0.0 SECONDS (       0.0 SEC/ITER)

 THE CONVERGED ORBITALS WILL UNDERGO GUEST/SAUNDERS
 CANONICALIZATION FOR SPIN-FLIP TDDFT.

 FINAL RO-BHHLYP ENERGY IS      -78.3912296564 AFTER  16 ITERATIONS
 DFT EXCHANGE + CORRELATION ENERGY =        -6.3541809870
 TOTAL ELECTRON NUMBER             =        15.9999797673

          --------------------
          SPIN SZ   =    1.000
          S-SQUARED =    2.000
          --------------------

          ------------
          EIGENVECTORS
          ------------

                      1          2          3          4          5
                  -10.5971   -10.5953    -0.8641    -0.6713    -0.5075
                     A          A          A          A          A   
    1  C  1  S    0.256623   0.960239  -0.165424   0.099791   0.017472
    2  C  1  S    0.010380   0.039798   0.320524  -0.195737  -0.042989
    3  C  1  X    0.000440  -0.000420  -0.085880  -0.189909   0.376439
    4  C  1  Y    0.000079   0.000610   0.054858  -0.058392   0.067556
    5  C  1  Z   -0.000083  -0.000602  -0.055413   0.048847  -0.006500
    6  C  1  S   -0.001102  -0.014625   0.256611  -0.200158   0.000132
    7  C  1  X   -0.001602   0.000847  -0.003199  -0.064503   0.122124
    8  C  1  Y   -0.000390  -0.001431   0.022102  -0.025871   0.028669
    9  C  1  Z    0.000432   0.001542  -0.021845   0.026489  -0.006693
   10  C  1 XX   -0.001992  -0.005806   0.010432   0.005248  -0.010437
   11  C  1 YY   -0.001824  -0.006376  -0.007141  -0.003394   0.011510
   12  C  1 ZZ   -0.001838  -0.006408  -0.004672  -0.004947   0.008280
   13  C  1 XY    0.000083   0.000046   0.001693  -0.010432   0.012802
   14  C  1 XZ   -0.000052   0.000028  -0.000133   0.007012  -0.006250
   15  C  1 YZ    0.000050   0.000061   0.005235  -0.007675   0.004688
   16  C  2  S    0.960093  -0.257042  -0.145908  -0.132660   0.007798
   17  C  2  S    0.038767  -0.010631   0.282754   0.259313  -0.024929
   18  C  2  X    0.000141  -0.000460   0.114897  -0.149397  -0.360469
   19  C  2  Y   -0.000141   0.000057  -0.020822  -0.011457   0.123366
   20  C  2  Z    0.000079  -0.000045   0.016882   0.005857  -0.125330
   21  C  2  S   -0.009728   0.006895   0.216206   0.282426   0.009355
   22  C  2  X    0.000378   0.002151  -0.000346  -0.064178  -0.138543
   23  C  2  Y    0.000585   0.000183  -0.004384   0.004889   0.046688
   24  C  2  Z   -0.000490  -0.000200   0.001745  -0.008551  -0.049529
   25  C  2 XX   -0.005944   0.001171   0.016351   0.001083  -0.001289
   26  C  2 YY   -0.006522   0.001580  -0.009722  -0.001390   0.006575
   27  C  2 ZZ   -0.006511   0.001580  -0.008045   0.001355   0.010096
   28  C  2 XY   -0.000067   0.000162  -0.002486  -0.000119   0.002452
   29  C  2 XZ    0.000078  -0.000128   0.002383   0.000826   0.001230
   30  C  2 YZ   -0.000070   0.000030  -0.006652  -0.013622  -0.008145
   31  H  3  S   -0.000137  -0.000004   0.067762   0.148705   0.063458
   32  H  3  S    0.002250   0.000051   0.012997   0.068232   0.046129
   33  H  4  S   -0.000268  -0.000067   0.057099   0.137599   0.191144
   34  H  4  S    0.001579  -0.000658   0.006943   0.062118   0.156713
   35  H  5  S   -0.000081  -0.000042   0.100322  -0.152273   0.146762
   36  H  5  S    0.001162   0.002714   0.016149  -0.066824   0.114606
   37  H  6  S   -0.000061   0.000053   0.101162  -0.134215   0.081489
   38  H  6  S    0.001156   0.002635   0.018431  -0.057889   0.064594

                      6          7          8          9         10
                   -0.4695    -0.4347    -0.1582    -0.1106     0.1662
                     A          A          A          A          A   
    1  C  1  S   -0.007058   0.009863   0.069655  -0.016205   0.031216
    2  C  1  S    0.015753  -0.017278  -0.158903   0.034140  -0.046744
    3  C  1  X    0.001244  -0.131280  -0.041326   0.017896   0.101380
    4  C  1  Y    0.273704   0.146905   0.386751  -0.142241  -0.063936
    5  C  1  Z    0.340675   0.015209  -0.372975   0.039323   0.016426
    6  C  1  S    0.009840  -0.021235  -0.258287   0.081780  -0.188218
    7  C  1  X   -0.000279  -0.063188  -0.057855   0.021070   0.173043
    8  C  1  Y    0.117656   0.060755   0.314157  -0.133175  -0.157283
    9  C  1  Z    0.143460   0.015379  -0.310378   0.033078   0.028823
   10  C  1 XX    0.005361  -0.001567   0.008237  -0.005323   0.009638
   11  C  1 YY    0.017243   0.005286   0.000820  -0.002030   0.000921
   12  C  1 ZZ   -0.024736  -0.005867   0.003716   0.004426  -0.000767
   13  C  1 XY    0.014744  -0.010021  -0.003532  -0.026789  -0.003346
   14  C  1 XZ    0.010806   0.016143  -0.007474  -0.024946   0.006036
   15  C  1 YZ    0.000423  -0.006477   0.002566  -0.000291   0.004788
   16  C  2  S   -0.001365  -0.020206  -0.020178   0.003516  -0.137733
   17  C  2  S    0.004379   0.044732   0.048312  -0.010077   0.178952
   18  C  2  X   -0.003914   0.182346   0.036734  -0.021511  -0.199365
   19  C  2  Y    0.010541   0.274058   0.063122   0.439448   0.054667
   20  C  2  Z    0.163423  -0.253517   0.132197   0.376334  -0.065507
   21  C  2  S    0.004068   0.037432   0.018455   0.000280   1.915594
   22  C  2  X   -0.002348   0.073746  -0.029217  -0.000620  -0.662914
   23  C  2  Y   -0.004162   0.146414   0.046055   0.401182   0.119803
   24  C  2  Z    0.072083  -0.139421   0.110973   0.343375  -0.131409
   25  C  2 XX    0.000300  -0.000804   0.004302  -0.000985  -0.012666
   26  C  2 YY   -0.001591  -0.004165  -0.004279  -0.001184  -0.004875
   27  C  2 ZZ    0.001052  -0.001463  -0.003730   0.003002  -0.006244
   28  C  2 XY    0.013625  -0.014144   0.021447  -0.007049   0.000654
   29  C  2 XZ    0.006213   0.021554  -0.022735   0.002705  -0.002749
   30  C  2 YZ   -0.000561   0.002384   0.005830  -0.001394  -0.000381
   31  H  3  S    0.054745  -0.247706   0.100034  -0.022282  -0.045337
   32  H  3  S    0.047455  -0.235612   0.135955  -0.031476  -1.142930
   33  H  4  S   -0.056854   0.167866  -0.110831   0.020230  -0.071030
   34  H  4  S   -0.051685   0.165294  -0.186058   0.044142  -1.452688
   35  H  5  S    0.209706   0.007544   0.027988  -0.123282   0.009571
   36  H  5  S    0.190624   0.008966   0.024776  -0.198227   0.167873
   37  H  6  S   -0.229713  -0.097759   0.076417   0.101458  -0.009350
   38  H  6  S   -0.210133  -0.094443   0.094485   0.177997  -0.036955

                     11         12         13         14         15
                    0.1838     0.2223     0.2401     0.3820     0.5553
                     A          A          A          A          A   
    1  C  1  S   -0.121230   0.042457   0.010540  -0.079435  -0.010554
    2  C  1  S    0.118987  -0.066260  -0.010020   0.018149  -0.262506
    3  C  1  X    0.184972   0.007450  -0.044797  -0.172910   0.627719
    4  C  1  Y    0.042040  -0.086129  -0.282565  -0.058745  -0.132040
    5  C  1  Z   -0.118825   0.036945  -0.298478   0.032584   0.016722
    6  C  1  S    2.352267  -0.952106  -0.252719   2.857317  -0.438623
    7  C  1  X    0.534195  -0.136604  -0.140948  -2.827406  -0.678278
    8  C  1  Y    0.283053  -0.562707  -0.950097   0.163265   0.045976
    9  C  1  Z   -0.509749   0.430603  -1.020308  -0.202090   0.018915
   10  C  1 XX   -0.009351  -0.013220   0.006092  -0.024032  -0.066369
   11  C  1 YY   -0.009945   0.007116   0.000752   0.007344   0.007474
   12  C  1 ZZ   -0.009248   0.004954  -0.003527   0.011280   0.012297
   13  C  1 XY   -0.000701  -0.017955   0.006886   0.000200   0.018734
   14  C  1 XZ    0.004525   0.021363   0.003205   0.002136  -0.014891
   15  C  1 YZ   -0.002528  -0.009629  -0.000417   0.014754   0.003765
   16  C  2  S    0.010977   0.006220   0.004314   0.079765  -0.036428
   17  C  2  S    0.031335  -0.044679   0.003358  -0.079708  -0.352975
   18  C  2  X   -0.011258   0.097836   0.035276  -0.225694  -0.460799
   19  C  2  Y    0.105572   0.261807  -0.018396   0.064895  -0.084482
   20  C  2  Z   -0.113042  -0.290257   0.067013  -0.092200   0.070090
   21  C  2  S   -0.318354  -0.044599  -0.145122  -2.754455   0.255458
   22  C  2  X   -0.323474   0.634912   0.058664  -2.734805   1.296409
   23  C  2  Y    0.164054   0.837105   0.234924   0.626141  -0.030036
   24  C  2  Z   -0.145737  -0.874952   0.435875  -0.616820   0.029491
   25  C  2 XX    0.015333  -0.009861   0.000148   0.001349  -0.118582
   26  C  2 YY    0.002047   0.001560   0.013207  -0.002337   0.007518
   27  C  2 ZZ   -0.001857  -0.000657  -0.013154  -0.005506   0.004544
   28  C  2 XY    0.005104   0.005484  -0.016761  -0.012154   0.024850
   29  C  2 XZ   -0.008142  -0.009671  -0.013399   0.011624  -0.031258
   30  C  2 YZ   -0.003025   0.002948  -0.000587   0.011546   0.002283
   31  H  3  S    0.053455   0.045577  -0.006665  -0.052453   0.026336
   32  H  3  S    0.320249   1.636861  -0.074178  -0.217971   0.140016
   33  H  4  S   -0.012492  -0.079266   0.009591   0.056208  -0.168918
   34  H  4  S   -0.392027  -0.959398   0.290480  -1.124373   0.534752
   35  H  5  S   -0.011663  -0.039348   0.050649   0.032342   0.037954
   36  H  5  S   -1.335357   0.664076   1.732299   0.695503   0.052878
   37  H  6  S   -0.035726  -0.052466  -0.053046   0.072253   0.073100
   38  H  6  S   -1.581350   0.370216  -1.436520   0.375113  -0.108875

                     16         17         18         19         20
                    0.6426     0.6447     0.6948     0.7511     0.7986
                     A          A          A          A          A   
    1  C  1  S    0.017174  -0.011411  -0.005792   0.048136  -0.016841
    2  C  1  S   -0.178313   0.108203   0.065828   0.160171   0.340487
    3  C  1  X    0.016588  -0.085341  -0.098532   0.356602  -0.329960
    4  C  1  Y    0.351647  -0.547885  -0.477895  -0.382801   0.011216
    5  C  1  Z   -0.735942   0.118089  -0.314464   0.243705   0.193440
    6  C  1  S   -0.244901   0.109754  -0.125701  -0.947167  -1.765708
    7  C  1  X    0.009597   0.369051   0.378933  -0.009654   0.961996
    8  C  1  Y   -0.130317   0.847603   1.132374   0.627532  -0.160908
    9  C  1  Z    1.060041   0.146289   0.971708  -0.389742  -0.347033
   10  C  1 XX   -0.051112   0.025308  -0.011312   0.111640  -0.084883
   11  C  1 YY   -0.040617  -0.036394  -0.043271  -0.017682   0.045331
   12  C  1 ZZ    0.033739   0.043517   0.063378   0.002797   0.033587
   13  C  1 XY   -0.002645  -0.001708  -0.065541   0.027200   0.048431
   14  C  1 XZ   -0.015620   0.007511  -0.059118  -0.031739  -0.048886
   15  C  1 YZ    0.010211  -0.009418  -0.004474   0.035226  -0.008297
   16  C  2  S    0.001055   0.003895   0.007199  -0.047006   0.056005
   17  C  2  S   -0.051154   0.038685   0.051529   0.221905   0.315278
   18  C  2  X   -0.074183   0.036800  -0.045304   0.353122  -0.634026
   19  C  2  Y   -0.139932  -0.670604   0.434177   0.354525   0.083903
   20  C  2  Z   -0.419941  -0.389873   0.446853  -0.398219  -0.161169
   21  C  2  S    0.239656   0.061871   0.127518   0.119088  -0.203828
   22  C  2  X    0.261135  -0.021534   0.217689   0.080231   2.250671
   23  C  2  Y   -0.080754   0.596690  -0.842576  -0.973900  -0.286418
   24  C  2  Z    0.415701   0.231113  -0.850264   1.018888   0.545063
   25  C  2 XX    0.016398   0.005618   0.028854  -0.098282   0.131553
   26  C  2 YY   -0.013784  -0.003992  -0.017390   0.041237   0.021214
   27  C  2 ZZ    0.005044   0.005552   0.018707   0.051990   0.049442
   28  C  2 XY   -0.010962  -0.003652   0.024075  -0.071447  -0.051889
   29  C  2 XZ    0.010024  -0.015871   0.019859   0.075652   0.062482
   30  C  2 YZ    0.003540  -0.006993  -0.012972   0.008427  -0.143281
   31  H  3  S   -0.170804   0.139138   0.100885  -0.455083   0.332916
   32  H  3  S   -0.046497   0.039429   0.049448  -0.000931   0.628161
   33  H  4  S    0.226925  -0.113581   0.029092   0.253522   0.685426
   34  H  4  S    0.054513  -0.029290  -0.019725   0.345990   0.457098
   35  H  5  S   -0.123709  -0.277705  -0.369466   0.207807   0.075187
   36  H  5  S   -0.065698  -0.409736  -0.231237  -0.073197   0.029466
   37  H  6  S    0.278851   0.119773   0.325059   0.228729   0.061135
   38  H  6  S    0.245936   0.126161   0.019237   0.074687  -0.262265

                     21         22         23         24         25
                    0.9029     0.9421     0.9697     1.0007     1.0732
                     A          A          A          A          A   
    1  C  1  S   -0.029145   0.028156   0.042594  -0.034790   0.037095
    2  C  1  S   -0.037801   0.399893   0.233244  -0.212574  -1.224328
    3  C  1  X   -0.131005   0.301630   0.501025  -0.087171  -0.454514
    4  C  1  Y   -0.017033  -0.396476   0.398742  -0.128449  -0.236985
    5  C  1  Z    0.070922  -0.595007   0.303564  -0.011411   0.142193
    6  C  1  S    0.114361  -0.864364  -0.508748   0.013485   2.716193
    7  C  1  X    0.247909  -1.004283  -1.395822   1.130619   0.330195
    8  C  1  Y    0.278535   0.333684  -0.986605   0.512362   0.320230
    9  C  1  Z   -0.393140   1.239417  -0.151413  -0.307648  -0.140323
   10  C  1 XX   -0.083733   0.079734   0.085769  -0.054257  -0.076003
   11  C  1 YY    0.027051   0.055077  -0.045974   0.027136  -0.055035
   12  C  1 ZZ    0.024351  -0.042273   0.060301  -0.025256  -0.034064
   13  C  1 XY   -0.053141   0.073413  -0.115055   0.016745   0.076168
   14  C  1 XZ    0.048952   0.133838  -0.027194  -0.004374  -0.010701
   15  C  1 YZ   -0.030604   0.020795   0.042060  -0.050428   0.106309
   16  C  2  S    0.006926   0.022610   0.016871   0.008224  -0.001839
   17  C  2  S    0.004352   0.332512   0.144080  -1.553609  -0.093580
   18  C  2  X   -0.075889   0.262001   0.564515   0.307896   0.162855
   19  C  2  Y    0.616794   0.007446  -0.113076   0.114818   0.010396
   20  C  2  Z   -0.705645   0.078367   0.036799  -0.086360   0.013057
   21  C  2  S   -0.058163  -0.906105  -0.652523   3.601492  -0.197546
   22  C  2  X    0.051066  -0.314811  -0.785767  -0.209020  -0.433507
   23  C  2  Y   -1.179603   0.263170   0.562134  -0.650522   0.155160
   24  C  2  Z    1.353153  -0.456873  -0.387333   0.597801  -0.219750
   25  C  2 XX    0.065749   0.017336  -0.040593  -0.096921  -0.050467
   26  C  2 YY   -0.016424   0.019512   0.010898  -0.078815   0.025987
   27  C  2 ZZ   -0.024104   0.025214   0.040898  -0.067426   0.020261
   28  C  2 XY    0.102461  -0.027303   0.108565  -0.021550  -0.007873
   29  C  2 XZ   -0.109517  -0.118411  -0.019334   0.024795  -0.026852
   30  C  2 YZ    0.017511  -0.064423  -0.087600  -0.045042  -0.037576
   31  H  3  S    0.536088   0.489323   0.666489   0.227310   0.277507
   32  H  3  S   -1.377043  -0.170465  -0.496353  -1.296850  -0.239826
   33  H  4  S   -0.598291   0.160480   0.283725   0.549750  -0.040193
   34  H  4  S    1.577819  -0.197293  -0.546851  -0.836562  -0.176935
   35  H  5  S   -0.132136   0.591353  -0.260057  -0.159199   0.751199
   36  H  5  S   -0.010438  -0.443645   1.559419  -0.618948  -1.326911
   37  H  6  S   -0.099382  -0.465712   0.536441  -0.336974   0.625949
   38  H  6  S   -0.092363   1.805471  -0.222131  -0.220786  -1.026309

                     26         27         28         29         30
                    1.1963     1.5916     1.7236     1.7900     1.9886
                     A          A          A          A          A   
    1  C  1  S   -0.075717   0.008004  -0.007918   0.000998  -0.060902
    2  C  1  S   -1.565304   0.077421  -0.202377   0.020481  -0.493510
    3  C  1  X    0.270046  -0.021138   0.016955  -0.021254   0.107438
    4  C  1  Y   -0.099914  -0.143784  -0.094750  -0.021579   0.106573
    5  C  1  Z    0.064534  -0.156767   0.101811  -0.068304  -0.059015
    6  C  1  S    5.440893  -0.274825   0.174196   0.096909   2.107650
    7  C  1  X   -1.217313  -0.041130   0.315797  -0.196129  -0.333772
    8  C  1  Y    0.816387  -0.047094   0.176647  -0.286650   0.263734
    9  C  1  Z   -0.828011   0.140083  -0.335592  -0.143712  -0.183460
   10  C  1 XX   -0.038304  -0.003702  -0.203178   0.058393   0.290667
   11  C  1 YY   -0.045713   0.465128   0.075691  -0.097532  -0.167761
   12  C  1 ZZ   -0.147947  -0.455533   0.113163   0.042850  -0.187031
   13  C  1 XY   -0.065553  -0.281323  -0.399166  -0.053221   0.243901
   14  C  1 XZ    0.026427  -0.290426   0.420182  -0.286659  -0.262081
   15  C  1 YZ   -0.211070   0.121230   0.505999  -0.120173   0.626435
   16  C  2  S    0.026484   0.000731   0.006716  -0.001382   0.025116
   17  C  2  S    0.945224   0.005912   0.083184  -0.023713   0.243117
   18  C  2  X    0.170475  -0.004599  -0.065523   0.006791  -0.042238
   19  C  2  Y   -0.015370  -0.097119  -0.051464  -0.028657   0.105560
   20  C  2  Z    0.019282  -0.087472   0.050914  -0.044871  -0.089157
   21  C  2  S   -3.934550   0.028723  -0.161976  -0.066585  -1.412435
   22  C  2  X   -1.685802   0.075957   0.449217  -0.201229  -0.414893
   23  C  2  Y   -0.108985   0.119026  -0.321298   0.237809   0.158574
   24  C  2  Z    0.135530  -0.047975   0.413249  -0.076252  -0.251502
   25  C  2 XX    0.008279   0.008680   0.127787  -0.030597  -0.113645
   26  C  2 YY    0.066494   0.112257  -0.252692  -0.787091   0.062451
   27  C  2 ZZ    0.072973  -0.121394   0.138972   0.813296   0.030601
   28  C  2 XY    0.056399   0.412898   0.099214   0.026083  -0.423477
   29  C  2 XZ   -0.016228   0.404140  -0.140575   0.079320   0.249875
   30  C  2 YZ   -0.089480   0.029014   0.402896  -0.021334   0.214750
   31  H  3  S   -0.014846   0.047588  -0.109022   0.034708   0.508181
   32  H  3  S   -0.039250   0.050408   0.117932  -0.021209  -0.019911
   33  H  4  S    0.327157  -0.035824   0.416696  -0.153841  -0.164123
   34  H  4  S    0.070681  -0.010378   0.225319  -0.086587   0.081791
   35  H  5  S   -0.418526   0.219904   0.001892   0.223055  -0.513392
   36  H  5  S   -0.572750  -0.098036  -0.182658   0.152492  -0.198631
   37  H  6  S   -0.496617  -0.080777  -0.076237  -0.174639  -0.423719
   38  H  6  S   -0.481758   0.220053  -0.245445  -0.039132  -0.194611

                     31         32         33         34         35
                    2.1405     2.1663     2.2499     2.5859     2.6565
                     A          A          A          A          A   
    1  C  1  S    0.024116   0.003634  -0.012027  -0.005702  -0.004459
    2  C  1  S    0.236048  -0.168685  -0.041592   0.000656   0.020242
    3  C  1  X   -0.135703   0.196342  -0.093373   0.039859   0.082489
    4  C  1  Y    0.046368  -0.089997  -0.062166   0.066794  -0.068047
    5  C  1  Z   -0.023964   0.048674  -0.126930   0.016716   0.107402
    6  C  1  S   -0.453280  -0.525097   0.626637   0.092570  -0.159218
    7  C  1  X    0.148568  -0.267445  -0.103958   0.025369   0.281440
    8  C  1  Y   -0.071094  -0.285096  -0.303524  -0.008229  -0.048731
    9  C  1  Z    0.197742   0.002164  -0.521005  -0.069068   0.055656
   10  C  1 XX   -0.375231   0.418260  -0.138785   0.012995   0.024786
   11  C  1 YY    0.372552  -0.479470  -0.632395   0.200804   0.015389
   12  C  1 ZZ    0.153746  -0.078004   0.830720  -0.243376  -0.074513
   13  C  1 XY    0.224624  -0.009119   0.011434   0.634396   0.736879
   14  C  1 XZ   -0.144700  -0.007022  -0.043771   0.813244  -0.371378
   15  C  1 YZ   -0.301954  -0.385330   0.145327  -0.028773   0.294076
   16  C  2  S    0.040593  -0.006864   0.015413  -0.005241  -0.004783
   17  C  2  S    0.380328  -0.151546   0.137233  -0.007763   0.102535
   18  C  2  X    0.231907  -0.205756   0.054382  -0.008827   0.145818
   19  C  2  Y   -0.040023   0.032361  -0.006117   0.094549   0.021722
   20  C  2  Z    0.046224  -0.038825   0.003710   0.070655   0.028898
   21  C  2  S   -0.609754   0.080715  -0.540343   0.051852   0.200106
   22  C  2  X    0.126976   0.807629  -0.378111  -0.045236   0.180946
   23  C  2  Y    0.125825   0.114211   0.238505   0.049812   0.033091
   24  C  2  Z   -0.168314   0.035002   0.196952   0.090196  -0.011982
   25  C  2 XX   -0.372166   0.473479  -0.213362  -0.055977   0.405414
   26  C  2 YY    0.306763  -0.227866   0.263842  -0.211289  -0.218816
   27  C  2 ZZ    0.267433  -0.384615   0.020003   0.229320  -0.144760
   28  C  2 XY   -0.063669   0.067674   0.455228   0.259057   0.685233
   29  C  2 XZ   -0.003269   0.217433   0.423760   0.608071  -0.542762
   30  C  2 YZ    0.708684   0.579417  -0.054228  -0.066324   0.107241
   31  H  3  S    0.363529   0.288000   0.010929   0.096290  -0.380681
   32  H  3  S    0.176437   0.137665  -0.027456  -0.093464   0.252141
   33  H  4  S    0.261890   0.187946  -0.013382  -0.162536   0.373066
   34  H  4  S    0.003154   0.126997  -0.010361   0.073806  -0.179131
   35  H  5  S   -0.057569   0.335795   0.284343  -0.516438  -0.365628
   36  H  5  S    0.089431   0.106462   0.025124   0.215693   0.061248
   37  H  6  S    0.069066   0.143209  -0.608019   0.451726  -0.084794
   38  H  6  S    0.134710  -0.026849  -0.050094  -0.257136  -0.038106

                     36         37         38
                    2.8179     4.2368     4.3802
                     A          A          A   
    1  C  1  S    0.068869  -0.276796  -0.393062
    2  C  1  S   -0.247655   1.784701   2.365833
    3  C  1  X    0.684860  -0.182320   0.294116
    4  C  1  Y   -0.109508  -0.010164  -0.092903
    5  C  1  Z    0.077724   0.009385   0.083677
    6  C  1  S   -2.001983   0.974165   2.089854
    7  C  1  X    1.193308   0.199417  -0.091376
    8  C  1  Y   -0.119322   0.135084   0.210098
    9  C  1  Z    0.104153  -0.143085  -0.221448
   10  C  1 XX   -1.024146  -0.933711  -1.870822
   11  C  1 YY    0.492757  -1.074483  -1.490168
   12  C  1 ZZ    0.560081  -1.064662  -1.472592
   13  C  1 XY    0.194266  -0.050623   0.049867
   14  C  1 XZ   -0.231685   0.029587  -0.060496
   15  C  1 YZ    0.041482  -0.016298   0.017989
   16  C  2  S   -0.078919  -0.380097   0.268329
   17  C  2  S    0.277333   2.540914  -1.686550
   18  C  2  X    0.653908   0.036979   0.320618
   19  C  2  Y   -0.092444   0.009143  -0.053067
   20  C  2  Z    0.074595  -0.006113   0.048028
   21  C  2  S    2.006472   1.090795  -1.511138
   22  C  2  X    1.190924  -0.219625  -0.178204
   23  C  2  Y   -0.253013  -0.081343  -0.013560
   24  C  2  Z    0.258155   0.065139   0.019961
   25  C  2 XX    0.935377  -1.520766   1.428931
   26  C  2 YY   -0.510367  -1.465433   1.023368
   27  C  2 ZZ   -0.522039  -1.467834   1.020823
   28  C  2 XY   -0.398476  -0.004408  -0.103092
   29  C  2 XZ    0.381533  -0.004956   0.094168
   30  C  2 YZ   -0.093616   0.005057  -0.007366
   31  H  3  S    0.062502   0.112169  -0.041559
   32  H  3  S   -0.029199  -0.393536   0.178152
   33  H  4  S   -0.185777   0.120330  -0.078184
   34  H  4  S    0.260582  -0.276837   0.256030
   35  H  5  S    0.021106   0.110340   0.109515
   36  H  5  S   -0.101255  -0.369390  -0.442554
   37  H  6  S   -0.093139   0.085466   0.071533
   38  H  6  S   -0.013997  -0.352321  -0.409179
 ...... END OF ROHF CALCULATION ......
 STEP CPU TIME =     6.26 TOTAL CPU TIME =          6.3 (      0.1 MIN)
 TOTAL WALL CLOCK TIME=          6.7 SECONDS, CPU UTILIZATION IS    94.50%

     ---------------------------------------------------------------------
     PROPERTIES FOR THE BHHLYP   DFT FUNCTIONAL (ROHF TYPE) DENSITY MATRIX
     ---------------------------------------------------------------------

          -----------------
          ENERGY COMPONENTS
          -----------------

         WAVEFUNCTION NORMALIZATION =       1.0000000000

                ONE ELECTRON ENERGY =    -168.4158921871
                TWO ELECTRON ENERGY =      57.5024424307
           NUCLEAR REPULSION ENERGY =      32.5222201000
                                      ------------------
                       TOTAL ENERGY =     -78.3912296564

 ELECTRON-ELECTRON POTENTIAL ENERGY =      57.5024424307
  NUCLEUS-ELECTRON POTENTIAL ENERGY =    -246.2977354821
   NUCLEUS-NUCLEUS POTENTIAL ENERGY =      32.5222201000
                                      ------------------
             TOTAL POTENTIAL ENERGY =    -156.2730729513
               TOTAL KINETIC ENERGY =      77.8818432949
                 VIRIAL RATIO (V/T) =       2.0065405021

          ---------------------------------------
          MULLIKEN AND LOWDIN POPULATION ANALYSES
          ---------------------------------------

     ATOMIC MULLIKEN POPULATION IN EACH MOLECULAR ORBITAL

                      1          2          3          4          5

                  2.000000   2.000000   2.000000   2.000000   2.000000

    1             0.133873   1.864653   0.982957   0.556862   0.649020
    2             1.865254   0.134324   0.781122   0.738911   0.757830
    3             0.000410  -0.000001   0.040551   0.198594   0.036578
    4             0.000265   0.000021   0.026335   0.169190   0.323450
    5             0.000097   0.000517   0.082319   0.188736   0.174174
    6             0.000101   0.000486   0.086715   0.147708   0.058947

                      6          7          8          9

                  2.000000   2.000000   1.000000   1.000000

    1             1.003367   0.213246   0.847494   0.058431
    2             0.179355   0.970544   0.061225   0.865176
    3             0.024923   0.507691   0.030536   0.001268
    4             0.027914   0.233773   0.046151   0.001832
    5             0.339817   0.000374   0.001134   0.040622
    6             0.424623   0.074373   0.013460   0.032671

     ATOMIC SPIN POPULATION (ALPHA MINUS BETA)
       ATOM         MULL.POP.                    LOW.POP.
    1 C             0.905925                     0.899454
    2 C             0.926400                     0.914169
    3 H             0.031804                     0.034432
    4 H             0.047983                     0.051399
    5 H             0.041756                     0.047955
    6 H             0.046132                     0.052592

               ----- POPULATIONS IN EACH AO -----
                             MULLIKEN      LOWDIN
              1  C  1  S      1.99372     1.98034
              2  C  1  S      0.69197     0.36984
              3  C  1  X      0.74545     0.65737
              4  C  1  Y      0.63812     0.58502
              5  C  1  Z      0.64732     0.58838
              6  C  1  S      0.62474     0.34393
              7  C  1  X      0.21707     0.37372
              8  C  1  Y      0.36148     0.44218
              9  C  1  Z      0.35616     0.44770
             10  C  1 XX      0.01128     0.17948
             11  C  1 YY     -0.00432     0.13684
             12  C  1 ZZ      0.00036     0.14181
             13  C  1 XY      0.01323     0.02646
             14  C  1 XZ      0.01140     0.02338
             15  C  1 YZ      0.00192     0.00308
             16  C  2  S      1.99351     1.97993
             17  C  2  S      0.67709     0.36475
             18  C  2  X      0.73750     0.65156
             19  C  2  Y      0.61945     0.57720
             20  C  2  Z      0.62321     0.57424
             21  C  2  S      0.61803     0.35477
             22  C  2  X      0.23623     0.38721
             23  C  2  Y      0.41768     0.47777
             24  C  2  Z      0.40509     0.47938
             25  C  2 XX      0.02008     0.19144
             26  C  2 YY     -0.01157     0.12444
             27  C  2 ZZ     -0.00718     0.13061
             28  C  2 XY      0.00985     0.02054
             29  C  2 XZ      0.01152     0.02354
             30  C  2 YZ      0.00326     0.00449
             31  H  3  S      0.49840     0.46637
             32  H  3  S      0.34215     0.38028
             33  H  4  S      0.47823     0.44427
             34  H  4  S      0.35070     0.39294
             35  H  5  S      0.53108     0.49035
             36  H  5  S      0.29671     0.34413
             37  H  6  S      0.52128     0.48576
             38  H  6  S      0.31781     0.35448

          ----- MULLIKEN ATOMIC OVERLAP POPULATIONS -----
          (OFF-DIAGONAL ELEMENTS NEED TO BE MULTIPLIED BY 2)

             1           2           3           4           5

    1    5.2130095
    2    0.4195172   5.3241928
    3   -0.0421777   0.3680410   0.5656884
    4   -0.0251296   0.3532098  -0.0561550   0.5580174
    5    0.3719966  -0.0504168   0.0022541  -0.0001788   0.5759884
    6    0.3726889  -0.0608039   0.0028986  -0.0008338  -0.0718536

             6

    6    0.5969894

          TOTAL MULLIKEN AND LOWDIN ATOMIC POPULATIONS
       ATOM         MULL.POP.    CHARGE          LOW.POP.     CHARGE
    1 C             6.309905   -0.309905         6.299541   -0.299541
    2 C             6.353740   -0.353740         6.341881   -0.341881
    3 H             0.840549    0.159451         0.846654    0.153346
    4 H             0.828930    0.171070         0.837209    0.162791
    5 H             0.827790    0.172210         0.834484    0.165516
    6 H             0.839086    0.160914         0.840231    0.159769

          -------------------------------
          BOND ORDER AND VALENCE ANALYSIS     BOND ORDER THRESHOLD=0.050
          -------------------------------

                   BOND                       BOND                       BOND
  ATOM PAIR DIST  ORDER      ATOM PAIR DIST  ORDER      ATOM PAIR DIST  ORDER
    1   2  1.364  1.155        1   5  1.056  0.919        1   6  1.087  0.922
    2   3  1.150  0.924        2   4  1.181  0.905

                       TOTAL       BONDED        FREE
      ATOM            VALENCE     VALENCE     VALENCE
    1 C                 3.858       3.054       0.804
    2 C                 3.847       3.012       0.835
    3 H                 0.932       0.931       0.001
    4 H                 0.934       0.931       0.002
    5 H                 0.913       0.911       0.002
    6 H                 0.918       0.916       0.002

          -----------------------------------------
          ATOMIC SPIN DENSITY AT THE NUCLEUS (A.U.)
          -----------------------------------------
                            SPIN DENS    ALPHA DENS     BETA DENS
    1  C            6.0     0.2693752      59.07793      58.80856
    2  C            6.0     0.0224133      58.91271      58.89030
    3  H            1.0     0.0177728       0.20390       0.18612
    4  H            1.0     0.0214414       0.19481       0.17337
    5  H            1.0     0.0276245       0.23039       0.20276
    6  H            1.0     0.0282227       0.22413       0.19591

          ---------------------
          ELECTROSTATIC MOMENTS
          ---------------------

 POINT   1           X           Y           Z (BOHR)    CHARGE
                -1.283723    0.238757   -0.239325        0.00 (A.U.)
         DX          DY          DZ         /D/  (DEBYE)
    -0.072679    0.383891   -0.444049    0.591468
 ...... END OF PROPERTY EVALUATION ......
 STEP CPU TIME =     0.00 TOTAL CPU TIME =          6.3 (      0.1 MIN)
 TOTAL WALL CLOCK TIME=          6.7 SECONDS, CPU UTILIZATION IS    94.51%

 -----------------------------------------------------------------------
                    SFDFT CALCULATION FOR SCFTYP=ROHF
                          CODED BY NORIYUKI MINEZAWA
 -----------------------------------------------------------------------
  
 -TDDFT RUNTIME PARAMETERS-
    TRIPLET  = F
    NONEQ    = T
    NSTATE   =                    3
    IROOT    =                    1
    NTRIAL   =                    5
    MAXVEC   =                   50
    ILENG    =                  200
    MAXGRD   =                29024
    NRAD     =                   48
    NLEB     =                  110
 GAS PHASE COMPUTATION
  
 FOR AN EULER-MACLAURIN QUADRATURE USING  48 RADIAL POINTS:
 SMALLEST GAUSSIAN PRIMITIVE EXPONENT=        0.1612777588 OF TYPE -S-
 ON ATOM NUMBER   3 HAS RADIAL NORMALIZATION=  1.000000
  LARGEST GAUSSIAN PRIMITIVE EXPONENT=     3047.5248800000 OF TYPE -S-
 ON ATOM NUMBER   1 HAS RADIAL NORMALIZATION=  1.000000
  

          -----------------------------------------------
          SF-DFT INPUT PARAMETERS (EXTRACTED FROM $TDDFT)
          -----------------------------------------------

     NSTATE=       3  IROOT=       1 MAXVEC=      50
     NTRIAL=       5 CNVTOL=  1.00E-07

     ********** NOTE: THE CURRENT STATUS OF SFDFT **********

     (1) UHF AND ROHF REFERENCES ARE AVAILABLE.
     (2) COLLINEAR APPROXIMATION FOR XC FUNCTIONALS.
     (3) NEITHER LC NOR CAMB3LYP IS SUPPORTED.
     (4) INCORRECT ANALYTIC GRADIENT FOR META-GGA.
     (5) SOLVENT MODELS (EFP1 AND/OR C-PCM) ARE AVAILABLE.

     *******************************************************

 MEMORY REQUIRED FOR SFDFT   ITERATIONS IS    193756 WORDS.


 STATE      ITERATION      ENERGY         RESIDUE NORM
   1            1      -78.3667334568     0.06219327
   2            1      -78.3638296237     0.05024355
   3            1      -78.2944631903     0.10855886

 STATE      ITERATION      ENERGY         RESIDUE NORM
   1            2      -78.3709435133     0.01040662
   2            2      -78.3657751547     0.00408524
   3            2      -78.3165769036     0.02174800

 STATE      ITERATION      ENERGY         RESIDUE NORM
   1            3      -78.3710593577     0.00146943
   2            3      -78.3657955338     0.00065840
   3            3      -78.3171117606     0.00256568

 STATE      ITERATION      ENERGY         RESIDUE NORM
   1            4      -78.3710619667     0.00024316
   2            4      -78.3657961860     0.00013361
   3            4      -78.3171217033     0.00044126

 STATE      ITERATION      ENERGY         RESIDUE NORM
   1            5      -78.3710620303     0.00003600
   2            5      -78.3657962062     0.00002157
   3            5      -78.3171220251     0.00007130

 STATE      ITERATION      ENERGY         RESIDUE NORM
   1            6      -78.3710620317     0.00000519
   2            6      -78.3657962066     0.00000203
   3            6      -78.3171220317     0.00000994

 STATE      ITERATION      ENERGY         RESIDUE NORM
   1            7      -78.3710620318     0.00000071
   2            7      -78.3657962066     0.00000025
   3            7      -78.3171220319     0.00000183

 STATE      ITERATION      ENERGY         RESIDUE NORM
   1            8      -78.3710620318     0.00000008
   2            8      -78.3657962066     0.00000004
   3            8      -78.3171220319     0.00000016

 STATE      ITERATION      ENERGY         RESIDUE NORM
   1            9      -78.3710620318     0.00000001
   2            9      -78.3657962066     0.00000001
   3            9      -78.3171220319     0.00000002
  
   -----------------------------------  
     SPIN-FLIP CALCULATION CONVERGED
   -----------------------------------  
 NUMBER OF USED VECTORS / MAX =  29 / 150
 NUMBER OF ITERATIONS   / MAX =   9 / 100
 NUMBER OF SINGLE EXCITATIONS =   279
 NUMBER OF ATOMIC ORBITALS    =  38

     -----------------------------------
     ALPHA -> BETA SPIN-FLIP EXCITATIONS
     -----------------------------------

 STATE #   1  ENERGY =    0.548789 EV
 SYMMETRY OF STATE   =    A   
 S-SQUARED           =    0.0704
        DRF    COEF       OCC(A)    VIR(B)
        ---    ----       ------    ------
          6  0.052384         6  ->     8
          8  0.429544         8  ->     8
          9  0.563733         9  ->     8
         17  0.196020         8  ->     9
         18 -0.671135         9  ->     9

 STATE #   2  ENERGY =    0.692079 EV
 SYMMETRY OF STATE   =    A   
 S-SQUARED           =    1.9406
        DRF    COEF       OCC(A)    VIR(B)
        ---    ----       ------    ------
          8 -0.790894         8  ->     8
          9 -0.098816         9  ->     8
         18 -0.600727         9  ->     9

 STATE #   3  ENERGY =    2.016571 EV
 SYMMETRY OF STATE   =    A   
 S-SQUARED           =    0.0768
        DRF    COEF       OCC(A)    VIR(B)
        ---    ----       ------    ------
          6 -0.201808         6  ->     8
          7  0.071093         7  ->     8
          8  0.398688         8  ->     8
          9 -0.775733         9  ->     8
         17  0.073892         8  ->     9
         18 -0.397617         9  ->     9
         36  0.061053         9  ->    11
         45 -0.101135         9  ->    12
         81 -0.069202         9  ->    16

          ----------------------------
          SUMMARY OF SPIN-FLIP RESULTS
          ----------------------------

   STATE             ENERGY     EXCITATION     S-SQUARED

 0 NEGATIVE ROOT(S) FOUND.
   0  A          -78.3912296564    0.000               (REFERENCE STATE)
   1  A          -78.3710620318    0.549        0.0704
   2  A          -78.3657962066    0.692        1.9406
   3  A          -78.3171220319    2.017        0.0768
  
 SELECTING EXCITED STATE IROOT=   1 AT E=      -78.3710620318
 AS THE STATE OF INTEREST.

 ..... DONE WITH SFDFT   EXCITATION ENERGIES .....
 STEP CPU TIME =     0.07 TOTAL CPU TIME =          6.4 (      0.1 MIN)
 TOTAL WALL CLOCK TIME=          6.8 SECONDS, CPU UTILIZATION IS    94.55%

 -----------------------------------------------------------------------
                   SF-DFT ENERGY GRADIENT CALCULATION
 -----------------------------------------------------------------------

    -------------------------
       START Z-VECTOR LOOP
    -------------------------
 INITIAL ERROR =    6.025E-03 / 1.000E-10
 ITER# 1 ERROR =    1.043E-03 / 1.000E-10
 ITER# 2 ERROR =    7.768E-05 / 1.000E-10
 ITER# 3 ERROR =    8.575E-06 / 1.000E-10
 ITER# 4 ERROR =    5.604E-07 / 1.000E-10
 ITER# 5 ERROR =    9.974E-08 / 1.000E-10
 ITER# 6 ERROR =    7.684E-09 / 1.000E-10
 ITER# 7 ERROR =    4.069E-10 / 1.000E-10
 ITER# 8 ERROR =    2.301E-11 / 1.000E-10
    -------------------------
        Z-VECTOR CONVERGED          
    -------------------------
 ..... DONE WITH SF-DFT EXCITED STATE RESPONSE AND DENSITY MATRIX .....
 STEP CPU TIME =     4.70 TOTAL CPU TIME =         11.1 (      0.2 MIN)
 TOTAL WALL CLOCK TIME=         11.5 SECONDS, CPU UTILIZATION IS    96.76%

     ------------------------------------------
     PROPERTIES FOR THE BHHLYP   DFT FUNCTIONAL
      USING THE RELAXED DENSITY OF EXCITED STATE    1
     ------------------------------------------

          -----------------
          ENERGY COMPONENTS
          -----------------

         WAVEFUNCTION NORMALIZATION =       1.0000000000

                ONE ELECTRON ENERGY =    -168.3715361444
                TWO ELECTRON ENERGY =      57.4782540126
           NUCLEAR REPULSION ENERGY =      32.5222201000
                                      ------------------
                       TOTAL ENERGY =     -78.3710620318

 ELECTRON-ELECTRON POTENTIAL ENERGY =      57.4782540126
  NUCLEUS-ELECTRON POTENTIAL ENERGY =    -246.1867454579
   NUCLEUS-NUCLEUS POTENTIAL ENERGY =      32.5222201000
                                      ------------------
             TOTAL POTENTIAL ENERGY =    -156.1862713453
               TOTAL KINETIC ENERGY =      77.8152093135
                 VIRIAL RATIO (V/T) =       2.0071432400

          ---------------------------------------
          MULLIKEN AND LOWDIN POPULATION ANALYSES
          ---------------------------------------

     ATOMIC MULLIKEN POPULATION IN EACH MOLECULAR ORBITAL

                      1          2          3          4          5

                  2.000000   2.000000   2.000000   2.000000   2.000000

    1             0.133873   1.864653   0.982957   0.556862   0.649020
    2             1.865254   0.134324   0.781122   0.738911   0.757830
    3             0.000410  -0.000001   0.040551   0.198594   0.036578
    4             0.000265   0.000021   0.026335   0.169190   0.323450
    5             0.000097   0.000517   0.082319   0.188736   0.174174
    6             0.000101   0.000486   0.086715   0.147708   0.058947

                      6          7          8          9

                  2.000000   2.000000   1.000000   1.000000

    1             1.003367   0.213246   0.847494   0.058431
    2             0.179355   0.970544   0.061225   0.865176
    3             0.024923   0.507691   0.030536   0.001268
    4             0.027914   0.233773   0.046151   0.001832
    5             0.339817   0.000374   0.001134   0.040622
    6             0.424623   0.074373   0.013460   0.032671

     ATOMIC SPIN POPULATION (ALPHA MINUS BETA)
       ATOM         MULL.POP.                    LOW.POP.
    1 C             0.292718                     0.275023
    2 C            -0.279497                    -0.264393
    3 H             0.006485                     0.007787
    4 H             0.009527                     0.011419
    5 H            -0.013658                    -0.013333
    6 H            -0.015576                    -0.016502

               ----- POPULATIONS IN EACH AO -----
                             MULLIKEN      LOWDIN
              1  C  1  S      1.99371     1.98037
              2  C  1  S      0.69099     0.36908
              3  C  1  X      0.74043     0.65346
              4  C  1  Y      0.60345     0.55095
              5  C  1  Z      0.68670     0.62831
              6  C  1  S      0.61685     0.34429
              7  C  1  X      0.21577     0.37270
              8  C  1  Y      0.37514     0.44996
              9  C  1  Z      0.38514     0.48027
             10  C  1 XX      0.01179     0.18163
             11  C  1 YY     -0.00412     0.13719
             12  C  1 ZZ     -0.00080     0.13942
             13  C  1 XY      0.01281     0.02425
             14  C  1 XZ      0.01091     0.02318
             15  C  1 YZ      0.00183     0.00298
             16  C  2  S      1.99361     1.98010
             17  C  2  S      0.68978     0.36981
             18  C  2  X      0.74878     0.66032
             19  C  2  Y      0.57652     0.53403
             20  C  2  Z      0.61915     0.57016
             21  C  2  S      0.61804     0.35428
             22  C  2  X      0.24169     0.38714
             23  C  2  Y      0.43434     0.48011
             24  C  2  Z      0.38984     0.47653
             25  C  2 XX      0.01916     0.19250
             26  C  2 YY     -0.01150     0.12602
             27  C  2 ZZ     -0.00760     0.13179
             28  C  2 XY      0.00995     0.01924
             29  C  2 XZ      0.01314     0.02740
             30  C  2 YZ      0.00312     0.00439
             31  H  3  S      0.50036     0.46869
             32  H  3  S      0.33839     0.37885
             33  H  4  S      0.47999     0.44657
             34  H  4  S      0.34692     0.39132
             35  H  5  S      0.51753     0.47193
             36  H  5  S      0.29045     0.33974
             37  H  6  S      0.52733     0.49562
             38  H  6  S      0.32041     0.35543

          ----- MULLIKEN ATOMIC OVERLAP POPULATIONS -----
          (OFF-DIAGONAL ELEMENTS NEED TO BE MULTIPLIED BY 2)

             1           2           3           4           5

    1    5.2052293
    2    0.4669614   5.2771476
    3   -0.0416119   0.3603237   0.5779100
    4   -0.0312723   0.3469638  -0.0633240   0.5768091
    5    0.3738525  -0.0433333   0.0001783   0.0028589   0.5472154
    6    0.3674475  -0.0700359   0.0052659  -0.0051334  -0.0727950

             6

    6    0.6229961

          TOTAL MULLIKEN AND LOWDIN ATOMIC POPULATIONS
       ATOM         MULL.POP.    CHARGE          LOW.POP.     CHARGE
    1 C             6.340606   -0.340606         6.338049   -0.338049
    2 C             6.338027   -0.338027         6.313805   -0.313805
    3 H             0.838742    0.161258         0.847545    0.152455
    4 H             0.826902    0.173098         0.837885    0.162115
    5 H             0.807977    0.192023         0.811671    0.188329
    6 H             0.847745    0.152255         0.851045    0.148955

          -------------------------------
          BOND ORDER AND VALENCE ANALYSIS     BOND ORDER THRESHOLD=0.050
          -------------------------------

                   BOND                       BOND                       BOND
  ATOM PAIR DIST  ORDER      ATOM PAIR DIST  ORDER      ATOM PAIR DIST  ORDER
    1   2  1.364  1.361        1   5  1.056  0.910        1   6  1.087  0.923
    2   3  1.150  0.925        2   4  1.181  0.905

                       TOTAL       BONDED        FREE
      ATOM            VALENCE     VALENCE     VALENCE
    1 C                 3.856       3.183       0.673
    2 C                 3.841       3.161       0.680
    3 H                 0.929       0.905       0.023
    4 H                 0.928       0.893       0.035
    5 H                 0.915       0.880       0.035
    6 H                 0.913       0.884       0.029

          -----------------------------------------
          ATOMIC SPIN DENSITY AT THE NUCLEUS (A.U.)
          -----------------------------------------
                            SPIN DENS    ALPHA DENS     BETA DENS
    1  C            6.0     0.0905004      58.98600      58.89549
    2  C            6.0     0.0028011      58.92732      58.92452
    3  H            1.0     0.0042574       0.19811       0.19385
    4  H            1.0     0.0048478       0.18742       0.18257
    5  H            1.0    -0.0061227       0.20673       0.21285
    6  H            1.0    -0.0079146       0.20930       0.21721

          ---------------------
          ELECTROSTATIC MOMENTS
          ---------------------

 POINT   1           X           Y           Z (BOHR)    CHARGE
                -1.283723    0.238757   -0.239325        0.00 (A.U.)
         DX          DY          DZ         /D/  (DEBYE)
    -0.189371    0.483490   -0.480377    0.707380
 ...... END OF PROPERTY EVALUATION ......
 STEP CPU TIME =     0.00 TOTAL CPU TIME =         11.1 (      0.2 MIN)
 TOTAL WALL CLOCK TIME=         11.5 SECONDS, CPU UTILIZATION IS    96.76%

 BEGINNING ONE ELECTRON GRADIENT...
 ..... END OF 1-ELECTRON GRADIENT ......
 STEP CPU TIME =     0.00 TOTAL CPU TIME =         11.1 (      0.2 MIN)
 TOTAL WALL CLOCK TIME=         11.5 SECONDS, CPU UTILIZATION IS    96.77%

          ----------------------
          GRADIENT OF THE ENERGY
          ----------------------
 MEMORY FOR GRID POINT CONTRIBUTIONS TO THE SF-DFT GRADIENT=   2884259 WORDS.
 STEP CPU TIME =     5.31 TOTAL CPU TIME =         16.4 (      0.3 MIN)
 TOTAL WALL CLOCK TIME=         16.8 SECONDS, CPU UTILIZATION IS    97.72%

 THE MINIMUM MEMORY REQUIRED FOR THIS RUN IS      84843 WORDS.
 USING    1060363 WORDS FOR 2E- DERIVATIVE INTEGRAL CONTRIBUTIONS.
 THE COARSE/FINE SCHWARZ SCREENINGS SKIPPED           27/         132 BLOCKS.
 THE NUMBER OF GRADIENT INTEGRAL BLOCKS COMPUTED WAS      9023
 ...... END OF 2-ELECTRON GRADIENT ......
 STEP CPU TIME =     0.07 TOTAL CPU TIME =         16.5 (      0.3 MIN)
 TOTAL WALL CLOCK TIME=         16.9 SECONDS, CPU UTILIZATION IS    97.73%

 BEGINNING GEOMETRY SEARCH POINT NSERCH=   0 ...

 COORDINATES OF ALL ATOMS ARE (ANGS)
   ATOM   CHARGE       X              Y              Z
 ------------------------------------------------------------
 C           6.0   0.0000000000   0.0000000000   0.0000000000
 C           6.0  -1.3326040000   0.2123370000  -0.1985580000
 H           1.0  -2.1370870000  -0.3449910000   0.4047870000
 H           1.0  -2.0542240000   0.8093280000  -0.9186860000
 H           1.0   0.6448440000   0.7914240000   0.2719860000
 H           1.0   0.5192680000  -0.2699170000  -0.9163620000

          ********************
          1 ELECTRON INTEGRALS
          ********************
 ...... END OF ONE-ELECTRON INTEGRALS ......
 STEP CPU TIME =     0.00 TOTAL CPU TIME =         16.5 (      0.3 MIN)
 TOTAL WALL CLOCK TIME=         16.9 SECONDS, CPU UTILIZATION IS    97.73%

          --------------------
          2 ELECTRON INTEGRALS
          --------------------

 THE -PK- OPTION IS OFF, THE INTEGRALS ARE NOT IN SUPERMATRIX FORM.
 STORING   15000 INTEGRALS/RECORD ON DISK, USING 12 BYTES/INTEGRAL.
 TWO ELECTRON INTEGRAL EVALUATION REQUIRES   90532 WORDS OF MEMORY.
 SCHWARZ INEQUALITY OVERHEAD:       741 INTEGRALS, T=        0.00
 II,JST,KST,LST =  1  1  1  1 NREC =         1 INTLOC =    1
 II,JST,KST,LST =  2  1  1  1 NREC =         1 INTLOC =    2
 II,JST,KST,LST =  3  1  1  1 NREC =         1 INTLOC =   34
 II,JST,KST,LST =  4  1  1  1 NREC =         1 INTLOC =  214
 II,JST,KST,LST =  5  1  1  1 NREC =         1 INTLOC = 1189
 II,JST,KST,LST =  6  1  1  1 NREC =         1 INTLOC = 3244
 II,JST,KST,LST =  7  1  1  1 NREC =         2 INTLOC =  996
 II,JST,KST,LST =  8  1  1  1 NREC =         3 INTLOC = 8256
 II,JST,KST,LST =  9  1  1  1 NREC =         7 INTLOC = 6201
 II,JST,KST,LST = 10  1  1  1 NREC =         8 INTLOC = 6110
 II,JST,KST,LST = 11  1  1  1 NREC =         9 INTLOC = 7510
 II,JST,KST,LST = 12  1  1  1 NREC =        10 INTLOC =10490
 II,JST,KST,LST = 13  1  1  1 NREC =        12 INTLOC =  159
 II,JST,KST,LST = 14  1  1  1 NREC =        13 INTLOC = 6600
 II,JST,KST,LST = 15  1  1  1 NREC =        14 INTLOC =14946
 II,JST,KST,LST = 16  1  1  1 NREC =        16 INTLOC =10279
 SCHWARZ INEQUALITY TEST SKIPPED          27 INTEGRAL BLOCKS.
 TOTAL NUMBER OF NONZERO TWO-ELECTRON INTEGRALS =              262733
         18 INTEGRAL RECORDS WERE STORED ON DISK FILE  8.
  ...... END OF TWO-ELECTRON INTEGRALS .....
 STEP CPU TIME =     0.02 TOTAL CPU TIME =         16.5 (      0.3 MIN)
 TOTAL WALL CLOCK TIME=         16.9 SECONDS, CPU UTILIZATION IS    97.73%

 -----------------------------------------------------------------------
                    SFDFT CALCULATION FOR SCFTYP=ROHF
                          CODED BY NORIYUKI MINEZAWA
 -----------------------------------------------------------------------
  
 -TDDFT RUNTIME PARAMETERS-
    TRIPLET  = F
    NONEQ    = T
    NSTATE   =                    3
    IROOT    =                    3
    NTRIAL   =                    5
    MAXVEC   =                   50
    ILENG    =                  200
    MAXGRD   =                29024
    NRAD     =                   48
    NLEB     =                  110
 GAS PHASE COMPUTATION
  
 FOR AN EULER-MACLAURIN QUADRATURE USING  48 RADIAL POINTS:
 SMALLEST GAUSSIAN PRIMITIVE EXPONENT=        0.1612777588 OF TYPE -S-
 ON ATOM NUMBER   3 HAS RADIAL NORMALIZATION=  1.000000
  LARGEST GAUSSIAN PRIMITIVE EXPONENT=     3047.5248800000 OF TYPE -S-
 ON ATOM NUMBER   1 HAS RADIAL NORMALIZATION=  1.000000
  

          -----------------------------------------------
          SF-DFT INPUT PARAMETERS (EXTRACTED FROM $TDDFT)
          -----------------------------------------------

     NSTATE=       3  IROOT=       3 MAXVEC=      50
     NTRIAL=       5 CNVTOL=  1.00E-07

     ********** NOTE: THE CURRENT STATUS OF SFDFT **********

     (1) UHF AND ROHF REFERENCES ARE AVAILABLE.
     (2) COLLINEAR APPROXIMATION FOR XC FUNCTIONALS.
     (3) NEITHER LC NOR CAMB3LYP IS SUPPORTED.
     (4) INCORRECT ANALYTIC GRADIENT FOR META-GGA.
     (5) SOLVENT MODELS (EFP1 AND/OR C-PCM) ARE AVAILABLE.

     *******************************************************

 MEMORY REQUIRED FOR SFDFT   ITERATIONS IS    193756 WORDS.


 STATE      ITERATION      ENERGY         RESIDUE NORM
   1            1      -78.3667334568     0.06219327
   2            1      -78.3638296237     0.05024355
   3            1      -78.2944631903     0.10855886

 STATE      ITERATION      ENERGY         RESIDUE NORM
   1            2      -78.3709435133     0.01040662
   2            2      -78.3657751547     0.00408524
   3            2      -78.3165769036     0.02174800

 STATE      ITERATION      ENERGY         RESIDUE NORM
   1            3      -78.3710593577     0.00146943
   2            3      -78.3657955338     0.00065840
   3            3      -78.3171117606     0.00256568

 STATE      ITERATION      ENERGY         RESIDUE NORM
   1            4      -78.3710619667     0.00024316
   2            4      -78.3657961860     0.00013361
   3            4      -78.3171217033     0.00044126

 STATE      ITERATION      ENERGY         RESIDUE NORM
   1            5      -78.3710620303     0.00003600
   2            5      -78.3657962062     0.00002157
   3            5      -78.3171220251     0.00007130

 STATE      ITERATION      ENERGY         RESIDUE NORM
   1            6      -78.3710620317     0.00000519
   2            6      -78.3657962066     0.00000203
   3            6      -78.3171220317     0.00000994

 STATE      ITERATION      ENERGY         RESIDUE NORM
   1            7      -78.3710620318     0.00000071
   2            7      -78.3657962066     0.00000025
   3            7      -78.3171220319     0.00000183

 STATE      ITERATION      ENERGY         RESIDUE NORM
   1            8      -78.3710620318     0.00000008
   2            8      -78.3657962066     0.00000004
   3            8      -78.3171220319     0.00000016

 STATE      ITERATION      ENERGY         RESIDUE NORM
   1            9      -78.3710620318     0.00000001
   2            9      -78.3657962066     0.00000001
   3            9      -78.3171220319     0.00000002
  
   -----------------------------------  
     SPIN-FLIP CALCULATION CONVERGED
   -----------------------------------  
 NUMBER OF USED VECTORS / MAX =  29 / 150
 NUMBER OF ITERATIONS   / MAX =   9 / 100
 NUMBER OF SINGLE EXCITATIONS =   279
 NUMBER OF ATOMIC ORBITALS    =  38

     -----------------------------------
     ALPHA -> BETA SPIN-FLIP EXCITATIONS
     -----------------------------------

 STATE #   1  ENERGY =    0.548789 EV
 SYMMETRY OF STATE   =    A   
 S-SQUARED           =    0.0704
        DRF    COEF       OCC(A)    VIR(B)
        ---    ----       ------    ------
          6  0.052384         6  ->     8
          8  0.429544         8  ->     8
          9  0.563733         9  ->     8
         17  0.196020         8  ->     9
         18 -0.671135         9  ->     9

 STATE #   2  ENERGY =    0.692079 EV
 SYMMETRY OF STATE   =    A   
 S-SQUARED           =    1.9406
        DRF    COEF       OCC(A)    VIR(B)
        ---    ----       ------    ------
          8 -0.790894         8  ->     8
[...]
    1  C  1  S    0.994023  -0.012102  -0.154490   0.104326   0.025568
    2  C  1  S    0.040898  -0.000526   0.297297  -0.203626  -0.061558
    3  C  1  X   -0.000392   0.000428  -0.099379  -0.127770   0.242566
    4  C  1  Y    0.000531  -0.000074   0.053293  -0.077635   0.122354
    5  C  1  Z   -0.000830   0.000072  -0.084230   0.075209  -0.040855
    6  C  1  S   -0.015800   0.002457   0.245126  -0.238114  -0.029403
    7  C  1  X    0.001592  -0.001614  -0.012758  -0.037141   0.075995
    8  C  1  Y   -0.001964   0.000037   0.023404  -0.037882   0.049598
    9  C  1  Z    0.002608   0.000193  -0.032975   0.041774  -0.018558
   10  C  1 XX   -0.006116  -0.000328   0.006595   0.011907  -0.012930
   11  C  1 YY   -0.006373   0.000036  -0.005730  -0.005474   0.013109
   12  C  1 ZZ   -0.006415  -0.000037   0.000172  -0.006099   0.005872
   13  C  1 XY    0.000049   0.000057   0.002470  -0.010456   0.003250
   14  C  1 XZ    0.000018  -0.000088   0.003423   0.005953  -0.000671
   15  C  1 YZ    0.000024   0.000043   0.000497  -0.001047  -0.004775
   16  C  2  S    0.011751   0.993773  -0.148258  -0.131131   0.003538
   17  C  2  S    0.000278   0.040845   0.282146   0.256750  -0.010051
   18  C  2  X   -0.000221   0.000307   0.104353  -0.187509  -0.154943
   19  C  2  Y   -0.000019  -0.000111  -0.012857  -0.006962   0.268262
   20  C  2  Z   -0.000073  -0.000094   0.009045  -0.018802  -0.276145
   21  C  2  S    0.005081  -0.011736   0.213475   0.291921  -0.015989
   22  C  2  X    0.002611  -0.000498   0.010574  -0.050708  -0.052943
   23  C  2  Y    0.000393   0.000337   0.000148   0.002392   0.115293
   24  C  2  Z    0.000164  -0.000081  -0.005623  -0.013642  -0.119094
   25  C  2 XX   -0.000410  -0.006265   0.013560  -0.005841  -0.009858
   26  C  2 YY   -0.000182  -0.006720  -0.007364   0.003576   0.005780
   27  C  2 ZZ   -0.000214  -0.006738  -0.006140   0.002619   0.012360
   28  C  2 XY    0.000140  -0.000016  -0.001213   0.004739  -0.004833
   29  C  2 XZ   -0.000080   0.000079   0.002194  -0.000926   0.006300
   30  C  2 YZ   -0.000006  -0.000185  -0.009226  -0.017115  -0.009764
   31  H  3  S   -0.000078  -0.000238   0.073462   0.168370  -0.095922
   32  H  3  S    0.000598   0.002239   0.017243   0.079313  -0.065697
   33  H  4  S   -0.000183  -0.000265   0.076005   0.149277   0.251888
   34  H  4  S   -0.000285   0.002080   0.011148   0.069653   0.200130
   35  H  5  S    0.000163  -0.000036   0.093623  -0.147804   0.111961
   36  H  5  S    0.003067   0.000343   0.014024  -0.066262   0.091458
   37  H  6  S    0.000221   0.000020   0.110087  -0.115146   0.024103
   38  H  6  S    0.002896   0.000756   0.020232  -0.051094   0.026805

                      6          7          8          9         10
                   -0.4653    -0.4348    -0.1846    -0.0948     0.1572
                     A          A          A          A          A   
    1  C  1  S    0.019533  -0.003575   0.093736   0.000304   0.093724
    2  C  1  S   -0.035836   0.018757  -0.214522  -0.009049  -0.075555
    3  C  1  X   -0.174927  -0.285248  -0.130308   0.028114  -0.164815
    4  C  1  Y   -0.243274   0.165961   0.381360  -0.066370  -0.023939
    5  C  1  Z   -0.245755   0.198546  -0.358494  -0.088295   0.180991
    6  C  1  S   -0.072713  -0.028270  -0.342988   0.050850  -1.834515
    7  C  1  X   -0.060124  -0.112635  -0.109554   0.014339  -0.299583
    8  C  1  Y   -0.109108   0.069383   0.289021  -0.058944  -0.255979
    9  C  1  Z   -0.099240   0.108417  -0.278249  -0.100581   0.716948
   10  C  1 XX   -0.001823   0.014238   0.010691  -0.004301   0.003067
   11  C  1 YY   -0.022336   0.005205   0.002165  -0.005083   0.011597
   12  C  1 ZZ    0.025552  -0.025889   0.005316   0.010137   0.009663
   13  C  1 XY   -0.017022  -0.012322   0.004681  -0.022806  -0.000162
   14  C  1 XZ    0.008204   0.013015  -0.000620  -0.022399  -0.007416
   15  C  1 YZ    0.004134  -0.007559   0.002250   0.002852   0.002500
   16  C  2  S   -0.002808  -0.027249  -0.021868   0.003100   0.062452
   17  C  2  S    0.003004   0.059426   0.049329  -0.004141  -0.124499
   18  C  2  X    0.192168   0.297028   0.061373  -0.085218   0.057066
   19  C  2  Y    0.051106   0.185742  -0.058878   0.414019  -0.074146
   20  C  2  Z   -0.172958   0.000947   0.059865   0.411580   0.092767
   21  C  2  S    0.013605   0.084871   0.012343  -0.048388  -0.629049
   22  C  2  X    0.086830   0.143050  -0.000155  -0.093413   0.543909
   23  C  2  Y    0.030938   0.100892  -0.037568   0.397074  -0.159066
   24  C  2  Z   -0.085693  -0.012447   0.029557   0.400532   0.232393
   25  C  2 XX   -0.002580  -0.003432   0.006300   0.003085  -0.009994
   26  C  2 YY   -0.003526  -0.006750  -0.004721  -0.000226   0.003173
   27  C  2 ZZ    0.000197  -0.000945  -0.007830  -0.000620   0.010595
   28  C  2 XY   -0.019853  -0.007295   0.016601  -0.002856  -0.000857
   29  C  2 XZ   -0.000804   0.020227  -0.017150  -0.007077   0.002924
   30  C  2 YZ    0.001354   0.000210   0.007981  -0.000847   0.002881
   31  H  3  S   -0.153840  -0.185608   0.073731   0.007214  -0.014807
   32  H  3  S   -0.126050  -0.159733   0.089598   0.016233   0.392616
   33  H  4  S    0.060668   0.046491  -0.100604  -0.010261   0.008492
   34  H  4  S    0.045885   0.036000  -0.148683  -0.006219   0.930552
   35  H  5  S   -0.227933  -0.000553   0.082338  -0.099189   0.005320
   36  H  5  S   -0.216671   0.008077   0.084789  -0.175198   0.971799
   37  H  6  S    0.157658  -0.206475   0.054836   0.126882   0.058395
   38  H  6  S    0.151739  -0.220441   0.045674   0.234263   1.375313

                     11         12         13         14         15
                    0.1980     0.2049     0.2485     0.3580     0.5568
                     A          A          A          A          A   
    1  C  1  S    0.077277  -0.020691  -0.046995  -0.075944   0.013143
    2  C  1  S   -0.065169   0.019855   0.044185   0.019316   0.143377
    3  C  1  X   -0.009962   0.056404  -0.005557  -0.221022  -0.607800
    4  C  1  Y   -0.082860   0.297391   0.081400  -0.094243   0.085403
    5  C  1  Z    0.079228   0.246611  -0.006065   0.036252   0.079796
    6  C  1  S   -1.313637   0.425175   1.091167   2.504696   0.458237
    7  C  1  X    0.142668   0.128581  -0.051569  -2.285406   0.672768
    8  C  1  Y   -0.290852   0.892624   0.706481   0.017263   0.030577
    9  C  1  Z    0.355829   0.720007  -0.456112  -0.308409  -0.094780
   10  C  1 XX    0.013058  -0.010035   0.008395  -0.021325   0.075801
   11  C  1 YY    0.005177  -0.003561  -0.005996   0.005882  -0.020178
   12  C  1 ZZ    0.001995   0.007681  -0.004061   0.010425  -0.029797
   13  C  1 XY    0.000231  -0.010437   0.017138   0.003850  -0.023090
   14  C  1 XZ   -0.000932  -0.001767  -0.015067   0.001725   0.018934
   15  C  1 YZ    0.010562   0.002143   0.004257   0.010367  -0.003560
   16  C  2  S   -0.123209  -0.004213   0.015845   0.071950   0.025865
   17  C  2  S    0.131099  -0.012590   0.018872  -0.075977   0.213429
   18  C  2  X   -0.164159  -0.052436  -0.107957  -0.221091   0.513481
   19  C  2  Y   -0.026786   0.047639  -0.268660   0.063013   0.012604
   20  C  2  Z    0.009142  -0.086117   0.255255  -0.100238   0.096367
   21  C  2  S    2.234656   0.211103  -0.469539  -2.127699  -0.100988
   22  C  2  X   -0.365145  -0.176725  -0.786507  -2.271067  -1.310005
   23  C  2  Y   -0.100774  -0.041694  -1.092696   0.554814   0.057702
   24  C  2  Z    0.041419  -0.384616   0.921002  -0.745930  -0.185527
   25  C  2 XX   -0.012832  -0.000235   0.005347   0.003375   0.083899
   26  C  2 YY   -0.005315  -0.016438  -0.000977  -0.005851  -0.017843
   27  C  2 ZZ   -0.004657   0.013800   0.003337  -0.006221  -0.008942
   28  C  2 XY   -0.003686   0.015639  -0.003714  -0.016576  -0.014654
   29  C  2 XZ    0.001621   0.004225   0.007919   0.014414   0.036045
   30  C  2 YZ    0.000292   0.007903   0.000773   0.013017   0.016891
   31  H  3  S   -0.060486   0.012115  -0.013904  -0.068362  -0.089232
   32  H  3  S   -1.517056   0.056274  -1.699448  -0.232427  -0.187915
   33  H  4  S   -0.037810  -0.033000   0.034682  -0.010206  -0.082099
   34  H  4  S   -1.042061  -0.540435   1.570650  -0.911331  -0.218373
   35  H  5  S    0.017240  -0.084160   0.032579   0.062010  -0.098335
   36  H  5  S    0.758827  -1.490231  -0.776957   0.611698  -0.030114
   37  H  6  S    0.010691   0.099484   0.026136   0.100092  -0.172426
   38  H  6  S    0.631785   1.150345  -0.159563  -0.000255   0.324574

                     16         17         18         19
                    0.6275     0.6464     0.6810     0.7313
                     A          A          A          A   
    1  C  1  S    0.002481   0.025874   0.001314  -0.023949
    2  C  1  S   -0.026776  -0.300444  -0.089341   0.232139
    3  C  1  X   -0.115727  -0.115001   0.094347  -0.617190
    4  C  1  Y   -0.391708   0.614536   0.232243   0.143154
    5  C  1  Z   -0.509400  -0.695721   0.226664   0.137058
    6  C  1  S   -0.034912   0.078321   0.239697  -0.645542
    7  C  1  X    0.391700  -0.015275  -0.221859   0.772632
    8  C  1  Y    0.734483  -0.681372  -0.468177  -0.149566
    9  C  1  Z    0.928576   0.804744  -0.573336  -0.187643
   10  C  1 XX   -0.026982  -0.059010   0.011147  -0.080991
   11  C  1 YY   -0.073754  -0.014287   0.012836   0.011729
   12  C  1 ZZ    0.086204  -0.014103  -0.034923   0.045960
   13  C  1 XY   -0.025011   0.016564   0.041961   0.017035
   14  C  1 XZ    0.020842  -0.009935   0.027533  -0.042657
   15  C  1 YZ    0.019624   0.009358  -0.006357  -0.003916
   16  C  2  S    0.008294   0.006939  -0.007512   0.077547
   17  C  2  S   -0.079927  -0.127718  -0.033030   0.311648
   18  C  2  X    0.035246  -0.019016   0.136939  -0.499824
   19  C  2  Y   -0.429105   0.172592  -0.608320  -0.020235
   20  C  2  Z   -0.226795  -0.108014  -0.709433  -0.219920
   21  C  2  S    0.396959   0.323507  -0.137096  -0.708242
   22  C  2  X    0.026680  -0.189551  -0.351124   1.163945
   23  C  2  Y    0.323321  -0.328368   0.774714  -0.045927
   24  C  2  Z   -0.067999   0.227638   1.007367   0.470294
   25  C  2 XX    0.037550   0.017229  -0.033915   0.137827
   26  C  2 YY   -0.029040  -0.019874   0.009283   0.012130
   27  C  2 ZZ   -0.012199  -0.009435  -0.002438   0.024606
   28  C  2 XY   -0.000606  -0.020434  -0.020269  -0.001690
   29  C  2 XZ   -0.037494   0.010294  -0.008392   0.045139
   30  C  2 YZ    0.016975   0.010008   0.008474  -0.121095
   31  H  3  S    0.109416  -0.231658  -0.119373   0.431775
   32  H  3  S   -0.045169  -0.283642  -0.058823   0.335209
   33  H  4  S   -0.135737   0.159573  -0.007685   0.539354
   34  H  4  S   -0.026817   0.083676   0.029455   0.254306
   35  H  5  S   -0.400896   0.130994   0.152915  -0.032706
   36  H  5  S   -0.121653   0.143657  -0.116592  -0.020155
   37  H  6  S    0.323943   0.089889  -0.214806   0.168655
   38  H  6  S    0.076194   0.155637   0.280238  -0.240049

     ------------------------------------------
     PROPERTIES FOR THE BHHLYP   DFT FUNCTIONAL
      USING THE RELAXED DENSITY OF EXCITED STATE    3
     ------------------------------------------

          -----------------
          ENERGY COMPONENTS
          -----------------

         WAVEFUNCTION NORMALIZATION =       1.0000000000

                ONE ELECTRON ENERGY =    -168.8523211085
                TWO ELECTRON ENERGY =      57.6701702651
           NUCLEAR REPULSION ENERGY =      32.8379083351
                                      ------------------
                       TOTAL ENERGY =     -78.3442425083

 ELECTRON-ELECTRON POTENTIAL ENERGY =      57.6701702651
  NUCLEUS-ELECTRON POTENTIAL ENERGY =    -246.6731798155
   NUCLEUS-NUCLEUS POTENTIAL ENERGY =      32.8379083351
                                      ------------------
             TOTAL POTENTIAL ENERGY =    -156.1651012153
               TOTAL KINETIC ENERGY =      77.8208587070
                 VIRIAL RATIO (V/T) =       2.0067254951

          ---------------------------------------
          MULLIKEN AND LOWDIN POPULATION ANALYSES
          ---------------------------------------

     ATOMIC MULLIKEN POPULATION IN EACH MOLECULAR ORBITAL

                      1          2          3          4          5

                  2.000000   2.000000   2.000000   2.000000   2.000000

    1             1.997235   0.000922   0.934467   0.507217   0.386074
    2             0.001580   1.998194   0.790358   0.773760   0.913370
    3             0.000019   0.000432   0.050167   0.245526   0.068434
    4            -0.000008   0.000394   0.048193   0.188160   0.513254
    5             0.000616   0.000012   0.072410   0.178849   0.109174
    6             0.000559   0.000046   0.104405   0.106488   0.009694

                      6          7          8          9

                  2.000000   2.000000   1.000000   1.000000

    1             0.785781   0.737766   0.914544   0.022259
    2             0.380443   0.610854   0.017694   0.902885
    3             0.185761   0.263992   0.014164   0.000373
    4             0.025835   0.013215   0.032409   0.000158
    5             0.424789  -0.000222   0.015418   0.027402
    6             0.197391   0.374395   0.005772   0.046924

     ATOMIC SPIN POPULATION (ALPHA MINUS BETA)
       ATOM         MULL.POP.                    LOW.POP.
    1 C            -0.044747                    -0.048219
    2 C             0.141750                     0.130033
    3 H            -0.005414                    -0.004533
    4 H            -0.012434                    -0.010120
    5 H            -0.029079                    -0.025088
    6 H            -0.050076                    -0.042074

               ----- POPULATIONS IN EACH AO -----
                             MULLIKEN      LOWDIN
              1  C  1  S      1.99419     1.98139
              2  C  1  S      0.68836     0.38842
              3  C  1  X      0.63754     0.57929
              4  C  1  Y      0.67090     0.62286
              5  C  1  Z      0.66966     0.62096
              6  C  1  S      0.78315     0.42745
              7  C  1  X      0.16671     0.37603
              8  C  1  Y      0.47807     0.59298
              9  C  1  Z      0.47078     0.59935
             10  C  1 XX      0.00550     0.18567
             11  C  1 YY      0.00195     0.16179
             12  C  1 ZZ      0.00520     0.16000
             13  C  1 XY      0.00778     0.01304
             14  C  1 XZ      0.00491     0.00768
             15  C  1 YZ      0.00123     0.00201
             16  C  2  S      1.99418     1.98175
             17  C  2  S      0.76199     0.40440
             18  C  2  X      0.82558     0.73269
             19  C  2  Y      0.49728     0.43773
             20  C  2  Z      0.51446     0.45185
             21  C  2  S      0.65161     0.34693
             22  C  2  X      0.29105     0.39038
             23  C  2  Y      0.29989     0.35980
             24  C  2  Z      0.28220     0.35625
             25  C  2 XX      0.01119     0.19036
             26  C  2 YY     -0.00887     0.14516
             27  C  2 ZZ     -0.00692     0.14750
             28  C  2 XY      0.01648     0.02901
             29  C  2 XZ      0.01608     0.02777
             30  C  2 YZ      0.00606     0.00919
             31  H  3  S      0.53662     0.49262
             32  H  3  S      0.25186     0.32995
             33  H  4  S      0.53578     0.49730
             34  H  4  S      0.28792     0.35896
             35  H  5  S      0.49177     0.45327
             36  H  5  S      0.33068     0.35547
             37  H  6  S      0.47956     0.43571
             38  H  6  S      0.34763     0.34705

          ----- MULLIKEN ATOMIC OVERLAP POPULATIONS -----
          (OFF-DIAGONAL ELEMENTS NEED TO BE MULTIPLIED BY 2)

             1           2           3           4           5

    1    5.5292318
    2    0.5197986   5.0466308
    3   -0.0420364   0.3415662   0.5546833
    4   -0.0697014   0.3286986  -0.0778044   0.6589072
    5    0.3707326  -0.0607896   0.0045850  -0.0045693   0.5395115
    6    0.2778958  -0.0236426   0.0074893  -0.0118324  -0.0270190

             6

    6    0.6042935

          TOTAL MULLIKEN AND LOWDIN ATOMIC POPULATIONS
       ATOM         MULL.POP.    CHARGE          LOW.POP.     CHARGE
    1 C             6.585921   -0.585921         6.718905   -0.718905
    2 C             6.152262   -0.152262         6.010770   -0.010770
    3 H             0.788483    0.211517         0.822572    0.177428
    4 H             0.823698    0.176302         0.856256    0.143744
    5 H             0.822451    0.177549         0.808737    0.191263
    6 H             0.827184    0.172816         0.782760    0.217240

          -------------------------------
          BOND ORDER AND VALENCE ANALYSIS     BOND ORDER THRESHOLD=0.050
          -------------------------------

                   BOND                       BOND                       BOND
  ATOM PAIR DIST  ORDER      ATOM PAIR DIST  ORDER      ATOM PAIR DIST  ORDER
    1   2  1.373  1.450        1   5  1.107  0.856        1   6  1.149  0.727
    2   3  1.091  0.899        2   4  1.105  0.878        2   5  2.061  0.078
    2   6  1.792  0.212

                       TOTAL       BONDED        FREE
      ATOM            VALENCE     VALENCE     VALENCE
    1 C                 3.017       3.063      -0.046
    2 C                 3.489       3.516      -0.027
    3 H                 0.895       0.902      -0.007
    4 H                 0.895       0.897      -0.002
    5 H                 0.929       0.933      -0.004
    6 H                 0.923       0.934      -0.011

          -----------------------------------------
          ATOMIC SPIN DENSITY AT THE NUCLEUS (A.U.)
          -----------------------------------------
                            SPIN DENS    ALPHA DENS     BETA DENS
    1  C            6.0     0.0213510      59.07313      59.05178
    2  C            6.0    -0.0078643      59.10332      59.11118
    3  H            1.0    -0.0020559       0.21302       0.21508
    4  H            1.0    -0.0028415       0.21090       0.21374
    5  H            1.0    -0.0130422       0.18746       0.20050
    6  H            1.0    -0.0193361       0.17707       0.19640

          ---------------------
          ELECTROSTATIC MOMENTS
          ---------------------

 POINT   1           X           Y           Z (BOHR)    CHARGE
                -1.273361    0.176760   -0.064548       -0.00 (A.U.)
         DX          DY          DZ         /D/  (DEBYE)
    -2.689386    1.572786   -2.225626    3.828820
 ...... END OF PROPERTY EVALUATION ......
 STEP CPU TIME =     0.01 TOTAL CPU TIME =       1363.9 (     22.7 MIN)
 TOTAL WALL CLOCK TIME=       1399.0 SECONDS, CPU UTILIZATION IS    97.49%
  $VIB   
          IVIB=   0 IATOM=   0 ICOORD=   0 E=      -78.3442425083
 -8.351987029E-03-1.778943740E-02 3.824735651E-02 2.531005426E-02 1.743973584E-03
 -1.387902637E-02 3.656226164E-03 1.081782112E-03-1.574315418E-03-3.834340956E-03
  3.678170687E-04 4.339900845E-04-4.437235551E-03 2.113486822E-03-1.534010009E-02
 -1.234271689E-02 1.248237781E-02-7.887904716E-03
 -2.689385622E+00 1.572786011E+00-2.225625891E+00
 ......END OF GEOMETRY SEARCH......
 STEP CPU TIME =     0.00 TOTAL CPU TIME =       1363.9 (     22.7 MIN)
 TOTAL WALL CLOCK TIME=       1399.0 SECONDS, CPU UTILIZATION IS    97.49%
              2884571  WORDS OF DYNAMIC MEMORY USED
 EXECUTION OF GAMESS TERMINATED NORMALLY 21:04:22 10-MAR-2022    
 DDI: 263640 bytes (0.3 MB / 0 MWords) used by master data server.

 ----------------------------------------
 CPU timing information for all processes
 ========================================
 0: 1361.212 + 2.671 = 1363.884
 ----------------------------------------
Note: The following floating-point exceptions are signalling: IEEE_UNDERFLOW_FLAG IEEE_DENORMAL
 ddikick.x: exited gracefully.
