
 Distributed Data Interface kickoff program.
 Initiating 1 compute processes on 1 nodes to run the following command:
 /usr/local/gamess/gamess.00.x /home/webmo/webmo/yamnor/89/input 

          *******************************************************
          *                                                     *
          *      GAMESS VERSION = 30 SEP 2021 (R2 Patch 1)      *
          *                                                     *
          *              doi.org/10.1063/5.0005188              *
          *                                                     *
          **************** 64 BIT LINUX VERSION *****************

  GAMESS HAS BEEN MADE POSSIBLE WITH IMPORTANT CONTRIBUTIONS FROM
  THE FOLLOWING INDIVIDUALS (IN ALPHABETICAL ORDER):

     IVANA ADAMOVIC, CHRISTINE AIKENS, TOMOKO AKAMA,
     YURI ALEXEEV, YURIKO AOKI, POOJA ARORA, TOSHIO ASADA,
     ANDREY ASADCHEV, KIM K. BALDRIDGE, PRADIPTA BANDYOPADHYAY,
     TAYLOR A. BARNES, MARIA BARYSZ, ROB BELL,
     JONATHAN BENTZ, COLLEEN BERTONI,
     JERRY A. BOATZ, BRETT BODE, KURT BRORSEN, KURT R. BRORSEN,
     LAIMUTIS BYTAUTAS, CALEB CARLIN, LAURA CARRINGTON,
     GALINA CHABAN, BENOIT CHAMPAGNE, WEI CHEN, MAHITO CHIBA,
     DAN CHIPMAN, CHEOL HO CHOI, TANNER CULPITT,
     DIPAYAN DATTA, PAUL DAY, ALBERT DEFUSCO,
     NUWAN DESILVA, J. EMILIANO DEUSTUA,
     TIM DUDLEY, MICHEL DUPUIS, STEVEN T. ELBERT,
     DMITRI FEDOROV, ALEX FINDLATER, GRAHAM FLETCHER,
     MARK FREITAG, CHRISTIAN FRIEDL, DAVID GARMER,
     IGOR S. GERASIMOV, KURT GLAESEMANN, MARK S. GORDON,
     JEFFREY GOUR, FENG LONG GU, EMILIE B. GUIDEZ,
     ANASTASIA GUNINA, SHARON HAMMES-SCHIFFER, MASATAKE HARUTA,
     KIMIHIKO HIRAO, YASUHIRO IKABATA, TZVETELIN IORDANOV,
     STEPHAN IRLE, KAZUYA ISHIMURA, JOE IVANIC, FRANK JENSEN,
     JAN H. JENSEN, VISVALDAS KAIRYS, MUNEAKI KAMIYA,
     MICHIO KATOUDA, NAOAKI KAWAKAMI, DAN KEMP, BERNARD KIRTMAN,
     KAZUO KITAURA, MARIUSZ KLOBUKOWSKI, MASATO KOBAYASHI,
     PRAKASHAN KORAMBATH, JACEK KORCHOWIEC, SHIRO KOSEKI,
     KAROL KOWALSKI, JIMMY KROMANN, STANISLAW KUCHARSKI,
     HENRY KURTZ, SAROM SOK LEANG, HUI LI, SHUHUA LI, WEI LI,
     JESSE LUTZ, ALEKSANDR O. LYKHIN, MARCIN MAKOWSKI,
     JOANI MATO, NIKITA MATSUNAGA, BENEDETTA MENNUCCI,
     GRANT MERRILL, NORIYUKI MINEZAWA, VLADIMIR MIRONOV,
     EISAKU MIYOSHI, JOHN A. MONTGOMERY JR., HIROTOSHI MORI,
     JONATHAN MULLIN, MONIKA MUSIAL, SHIGERU NAGASE,
     TAKESHI NAGATA, HIROMI NAKAI, TAKAHITO NAKAJIMA,
     YUYA NAKAJIMA, HARUYUKI NAKANO, HIROYA NAKATA, SEAN NEDD,
     HEATHER NETZLOFF, KIET A. NGUYEN, YOSHIO NISHIMOTO,
     BOSILJKA NJEGIC, RYAN OLSON, MIKE PAK, ROBERTO PEVERATI,
     BUU PHAM, PIOTR PIECUCH, ANNA POMOGAEVA, DAVID POOLE,
     SPENCER PRUITT, OLIVIER QUINET, LUKE ROSKOP,
     KLAUS RUEDENBERG, ANDREW SAND, TOSAPORN SATTASATHUCHANA,
     NOZOMI SAWADA, MICHAEL W. SCHMIDT, PATRICK E. SCHNEIDER,
     JUNJI SEINO, PRACHI SHARMA, JUN SHEN, JIM SHOEMAKER,
     YINAN SHU, DEJUN SI, JONATHAN SKONE, LYUDMILA SLIPCHENKO,
     TONY SMITH, JIE SONG, MARK SPACKMAN, CASPER STEINMANN,
     WALT STEVENS, PEIFENG SU, SHUJUN SU, CHET SWALINA,
     TETSUYA TAKETSUGU, ZHEN TAO, NANDUN THELLAMUREGE
     SEIKEN TOKURA, JACOPO TOMASI, TSUGUKI TOUMA, TAKAO TSUNEDA,
     HIROAKI UMEDA, JORGE LUIS GALVEZ VALLEJO, YALI WANG,
     SIMON WEBB, AARON WEST, THERESA L. WINDUS, MARTA WLOCH,
     PENG XU, KIYOSHI YAGI, SUSUMU YANAGISAWA, YANG YANG,
     SOOHAENG YOO, TAKESHI YOSHIKAWA, FEDERICO ZAHARIEV,
     TOBY ZENG

  WHO ARE SUPPORTED BY THEIR INSTITUTION/UNIVERSITY/COMPANY/GROUP
  (IN ALPHABETICAL ORDER):

     EP ANALYTICS, FACULTES UNIVERSITAIRES NOTRE-DAME DE LA PAIX,
     INSTITUTE FOR MOLECULAR SCIENCE, IOWA STATE UNIVERSITY,
     JACKSON STATE UNIVERSITY, JOHANNES KEPLER UNIVERSITY LINZ,
     KYUSHU UNIVERSITY, MICHIGAN STATE UNIVERSITY,
     MIE UNIVERSITY, THE MOLECULAR SCIENCES SOFTWARE INSTITUTE,
     MOSCOW STATE UNIVERSITY,
     N. COPERNICUS UNIVERSITY, NAGOYA UNIVERSITY,
     NANJING UNIVERSITY, NAT. INST. OF ADVANCED INDUSTRIAL
     SCIENCE AND TECHNOLOGY, NATIONAL INST. OF STANDARDS AND
     TECHNOLOGY, NESMEYANOV INSTITUTE OF ORGANOELEMENT COMPOUNDS
     OF RUSSIAN ACADEMY OF SCIENCES, OSAKA PREFECTURE UNIVERSITY,
     PENNSYLVANIA STATE UNIVERSITY, TOKYO INSTITUTE OF TECHNOLOGY,
     UNIVERSITY OF AARHUS, UNIVERSITY OF ALBERTA,
     UNIVERSITY OF CALIFORNIA AT SANTA BARBARA,
     UNIVERSITY OF COPENHAGEN, UNIVERSITY OF IOWA,
     UNIVERSITY OF MEMPHIS, UNIVERSITY OF MINNESOTA,
     UNIVERSITY OF NEBRASKA, UNIVERSITY OF NEW ENGLAND,
     UNIVERSITY OF NOTRE DAME, UNIVERSITY OF PISA,
     UNIVERSITY OF SILESIA, UNIVERSITY OF TOKYO,
     UNIVERSITY OF ZURICH, WASEDA UNIVERSITY, YALE UNIVERSITY

  GAMESS SOFTWARE MANAGEMENT TEAM FOR THIS RELEASE:
     MARK S. GORDON (TEAM LEAD),
     BRETT BODE (SENIOR ADVISOR),
     GIUSEPPE BARCA,
     COLLEEN BERTONI,
     KRISTOPHER KEIPERT (ADVISOR),
     SAROM S. LEANG (DEVELOPMENT LEAD),
     BUU PHAM,
     JORGE LUIS GALVEZ VALLEJO (WEBSITE ADMINISTRATOR),
     PENG XU

 EXECUTION OF GAMESS BEGUN 07:00:13 12-MAR-2022    

            ECHO OF THE FIRST FEW INPUT CARDS -
 INPUT CARD> $CONTRL                                                                        
 INPUT CARD>    RUNTYP=CONICAL                                                              
 INPUT CARD>    TDDFT=SPNFLP                                                                
 INPUT CARD>    SCFTYP=ROHF                                                                 
 INPUT CARD>    DFTTYP=BHHLYP                                                               
 INPUT CARD>    ICHARG=0                                                                    
 INPUT CARD>    MULT=3                                                                      
 INPUT CARD>    COORD=UNIQUE                                                                
 INPUT CARD> $END                                                                           
 INPUT CARD> $SYSTEM                                                                        
 INPUT CARD>    MWORDS=128                                                                  
 INPUT CARD> $END                                                                           
 INPUT CARD> $BASIS                                                                         
 INPUT CARD>    GBASIS=N31 NGAUSS=6 NDFUNC=1                                                
 INPUT CARD> $END                                                                           
 INPUT CARD> $CONICL                                                                        
 INPUT CARD>    IXROOT(1)=2,3                                                               
 INPUT CARD> $END                                                                           
 INPUT CARD> $TDDFT                                                                         
 INPUT CARD>    NSTATE=3                                                                    
 INPUT CARD>    TAMMD=.T.                                                                   
 INPUT CARD> $END                                                                           
 INPUT CARD> $DATA                                                                          
 INPUT CARD>C2H4                                                                            
 INPUT CARD>C1 1                                                                            
 INPUT CARD>C 6 0.00000000 0.00000000 0.00000000                                            
 INPUT CARD>C 6 -1.33723876 -0.30093935 0.13764264                                          
 INPUT CARD>H 1 -1.78391968 -1.11038634 0.75036359                                          
 INPUT CARD>H 1 -2.09508746 0.14953750 -0.49933204                                          
 INPUT CARD>H 1 0.61067046 -0.03539838 0.90583015                                           
 INPUT CARD>H 1 0.14815501 -1.10406642 -0.28386137                                          
 INPUT CARD> $END                                                                           
 INPUT CARD>                                                                                
  128000000 WORDS OF MEMORY AVAILABLE

     BASIS OPTIONS
     -------------
     GBASIS=N31          IGAUSS=       6      POLAR=POPN31  
     NDFUNC=       1     NFFUNC=       0     DIFFSP=       F
     NPFUNC=       0      DIFFS=       F     BASNAM=        


     RUN TITLE
     ---------
 C2H4                                                                            

 THE POINT GROUP OF THE MOLECULE IS C1      
 THE ORDER OF THE PRINCIPAL AXIS IS     1

 ATOM      ATOMIC                      COORDINATES (BOHR)
           CHARGE         X                   Y                   Z
 C           6.0     0.0000000000        0.0000000000        0.0000000000
 C           6.0    -2.5270148366       -0.5686929104        0.2601068738
 H           1.0    -3.3711193793       -2.0983259231        1.4179815763
 H           1.0    -3.9591412197        0.2825848999       -0.9436007325
 H           1.0     1.1539998382       -0.0668932386        1.7117707749
 H           1.0     0.2799723726       -2.0863830060       -0.5364202078

          INTERNUCLEAR DISTANCES (ANGS.)
          ------------------------------

                1 C          2 C          3 H          4 H          5 H     

   1 C       0.0000000    1.3775767 *  2.2312267 *  2.1589547 *  1.0930232 *
   2 C       1.3775767 *  0.0000000    1.1091236 *  1.0876584 *  2.1106810 *
   3 H       2.2312267 *  1.1091236 *  0.0000000    1.8016583 *  2.6294165 *
   4 H       2.1589547 *  1.0876584 *  1.8016583 *  0.0000000    3.0544734  
   5 H       1.0930232 *  2.1106810 *  2.6294165 *  3.0544734    0.0000000  
   6 H       1.1495607 *  1.7404233 *  2.1914775 *  2.5787763 *  1.6647336 *

                6 H     

   1 C       1.1495607 *
   2 C       1.7404233 *
   3 H       2.1914775 *
   4 H       2.5787763 *
   5 H       1.6647336 *
   6 H       0.0000000  

  * ... LESS THAN  3.000


     ATOMIC BASIS SET
     ----------------
 THE CONTRACTED PRIMITIVE FUNCTIONS HAVE BEEN UNNORMALIZED
 THE CONTRACTED BASIS FUNCTIONS ARE NOW NORMALIZED TO UNITY

  SHELL TYPE  PRIMITIVE        EXPONENT          CONTRACTION COEFFICIENT(S)

 C         

      1   S       1          3047.5248800    0.001834737132
      1   S       2           457.3695180    0.014037322813
      1   S       3           103.9486850    0.068842622264
      1   S       4            29.2101553    0.232184443216
      1   S       5             9.2866630    0.467941348435
      1   S       6             3.1639270    0.362311985337

      2   L       7             7.8682723   -0.119332419775    0.068999066591
      2   L       8             1.8812885   -0.160854151696    0.316423960957
      2   L       9             0.5442493    1.143456437840    0.744308290898

      3   L      10             0.1687145    1.000000000000    1.000000000000

      4   D      11             0.8000000    1.000000000000

 C         

      5   S      12          3047.5248800    0.001834737132
      5   S      13           457.3695180    0.014037322813
      5   S      14           103.9486850    0.068842622264
      5   S      15            29.2101553    0.232184443216
      5   S      16             9.2866630    0.467941348435
      5   S      17             3.1639270    0.362311985337

      6   L      18             7.8682723   -0.119332419775    0.068999066591
      6   L      19             1.8812885   -0.160854151696    0.316423960957
      6   L      20             0.5442493    1.143456437840    0.744308290898

      7   L      21             0.1687145    1.000000000000    1.000000000000

      8   D      22             0.8000000    1.000000000000

 H         

      9   S      23            18.7311370    0.033494604338
      9   S      24             2.8253944    0.234726953484
      9   S      25             0.6401217    0.813757326146

     10   S      26             0.1612778    1.000000000000

 H         

     11   S      27            18.7311370    0.033494604338
     11   S      28             2.8253944    0.234726953484
     11   S      29             0.6401217    0.813757326146

     12   S      30             0.1612778    1.000000000000

 H         

     13   S      31            18.7311370    0.033494604338
     13   S      32             2.8253944    0.234726953484
     13   S      33             0.6401217    0.813757326146

     14   S      34             0.1612778    1.000000000000

 H         

     15   S      35            18.7311370    0.033494604338
     15   S      36             2.8253944    0.234726953484
     15   S      37             0.6401217    0.813757326146

     16   S      38             0.1612778    1.000000000000

 TOTAL NUMBER OF BASIS SET SHELLS             =   16
 NUMBER OF CARTESIAN GAUSSIAN BASIS FUNCTIONS =   38
 NUMBER OF ELECTRONS                          =   16
 CHARGE OF MOLECULE                           =    0
 SPIN MULTIPLICITY                            =    3
 NUMBER OF OCCUPIED ORBITALS (ALPHA)          =    9
 NUMBER OF OCCUPIED ORBITALS (BETA )          =    7
 TOTAL NUMBER OF ATOMS                        =    6
 THE NUCLEAR REPULSION ENERGY IS       32.9326010217

 SELECTED MURRAY-HANDY-LAMING RADIAL GRID

 LEGACY BECKE'S FUZZY CELL METHOD

 SELECTED ORIGINAL BECKE'S PARTITION FUNCTION

     LEBEDEV GRID-BASED DFT OPTIONS
     ------------------------------
     DFTTYP=BHHLYP  
     NRAD  =      96     NLEB  =     302
     NRAD0 =      24     NLEB0 =     110
     SWOFF =    5.00E-03 (PURE SCF -> DFT)
     SWITCH=    3.00E-04 (COARSE -> TIGHT GRID)
     THRESH=    0.00E+00 GTHRE=    1.00E+00

 GRIMME'S EMPIRICAL DISPERSION CORRECTION= F

     $CONTRL OPTIONS
     ---------------
 SCFTYP=ROHF         RUNTYP=CONICAL      EXETYP=RUN     
 MPLEVL=       0     CITYP =NONE         CCTYP =NONE         VBTYP =NONE    
 DFTTYP=BHHLYP       TDDFT =SPNFLP  
 MULT  =       3     ICHARG=       0     NZVAR =       0     COORD =UNIQUE  
 PP    =NONE         RELWFN=NONE         LOCAL =NONE         NUMGRD=       F
 ISPHER=      -1     NOSYM =       0     MAXIT =      30     UNITS =ANGS    
 PLTORB=       F     MOLPLT=       F     AIMPAC=       F     FRIEND=        
 NPRINT=       7     IREST =       0     GEOM  =INPUT   
 NORMF =       0     NORMP =       0     ITOL  =      20     ICUT  =       9
 INTTYP=BEST         GRDTYP=BEST         QMTTOL= 1.0E-06

     $SYSTEM OPTIONS
     ---------------
  REPLICATED MEMORY=   128000000 WORDS (ON EVERY NODE).
 DISTRIBUTED MEMDDI=           0 MILLION WORDS IN AGGREGATE,
 MEMDDI DISTRIBUTED OVER   1 PROCESSORS IS           0 WORDS/PROCESSOR.
 TOTAL MEMORY REQUESTED ON EACH PROCESSOR=   128000000 WORDS.
 TIMLIM=      525600.00 MINUTES, OR     365.0 DAYS.
 PARALL= F  BALTYP=  DLB     KDIAG=    0  COREFL= F
 MXSEQ2=     300 MXSEQ3=     150  mem10=         0  mem22=         0

          ----------------
          PROPERTIES INPUT
          ----------------

     MOMENTS            FIELD           POTENTIAL          DENSITY
 IEMOM =       1   IEFLD =       0   IEPOT =       0   IEDEN =       0
 WHERE =COMASS     WHERE =NUCLEI     WHERE =NUCLEI     WHERE =NUCLEI  
 OUTPUT=BOTH       OUTPUT=BOTH       OUTPUT=BOTH       OUTPUT=BOTH    
 IEMINT=       0   IEFINT=       0                     IEDINT=       0
                                                       MORB  =       0
          EXTRAPOLATION IN EFFECT
          DIIS IN EFFECT
 ORBITAL PRINTING OPTION: NPREO=     1    38     2     1

     -------------------------------
     INTEGRAL TRANSFORMATION OPTIONS
     -------------------------------
     NWORD  =            0
     CUTOFF = 1.0E-09     MPTRAN =       0
     DIRTRF =       F     AOINTS =DUP     

          ----------------------
          INTEGRAL INPUT OPTIONS
          ----------------------
 NOPK  =       1 NORDER=       0 SCHWRZ=       T

          ----------------------
          TDDFT INPUT PARAMETERS
          ----------------------
 NSTATE=       3 IROOT =       1 MULT  =       3
 MAXVEC=      50 NTRIAL=       5 CNVTOL=  1.00E-07
 TDPRP =       F TRNSD =       F TAMMD =       T
 TPA   =       F ALPHA =       F BETA  =       F
 PFREQ =    0.00    0.00
   NRAD=      48   NLEB=     110

     ------------------------------------------
     THE POINT GROUP IS C1 , NAXIS= 1, ORDER= 1
     ------------------------------------------

     DIMENSIONS OF THE SYMMETRY SUBSPACES ARE
 A   =   38

 ..... DONE SETTING UP THE RUN .....
 STEP CPU TIME =     0.01 TOTAL CPU TIME =          0.0 (      0.0 MIN)
 TOTAL WALL CLOCK TIME=          0.0 SECONDS, CPU UTILIZATION IS    33.05%


          -----------------------------
          STATIONARY POINT LOCATION RUN
          -----------------------------

 OBTAINING INITIAL HESSIAN, HESS=GUESS   
 CARTESIAN COORDINATE OPTIMIZATION USING BADGER'S RULE FORCE CONSTANT GUESS

          PARAMETERS CONTROLLING GEOMETRY SEARCH ARE
          METHOD =QA                  UPHESS =BFGS    
          NNEG   =         0          NFRZ   =         0
          NSTEP  =        50          IFOLOW =         1
          HESS   =GUESS               RESTAR =         F
          IHREP  =         0          HSSEND =         F
          NPRT   =         0          NPUN   =         0
          OPTTOL = 1.000E-04          RMIN   = 1.500E-03
          RMAX   = 1.000E-01          RLIM   = 7.000E-02
          DXMAX  = 2.000E-01          PURIFY =         F
          MOVIE  =         F          TRUPD  =         T
          TRMAX  = 3.000E-01          TRMIN  = 5.000E-02
          ITBMAT =         5          STPT   =         F
          STSTEP = 1.000E-02          PROJCT=          T


          ---------------------------------------
          CONICAL INTERSECTION POINT LOCATION RUN
          ---------------------------------------

          IXROOT(1)=          2          IXROOT(2)=          3
          SYMOFF   =          T          DEBUG    =          F
          TOLSTP   =  1.000E-06          TOLGRD   =  5.000E-03
          ALPHA    =  2.000E-02          SIGMA    =  3.500E+00

 CONICAL INTERSECTION SEARCH BY BRANCHING PLANE UPDATING METHOD

 REFERENCE: S. MAEDA, K. OHNO, AND K. MOROKUMA,
            J. CHEM. THEORY COMPUT. 6, 1538 (2010).

 PROGRAMMED BY NORIYUKI MINEZAWA


 BEGINNING GEOMETRY SEARCH POINT NSERCH=   0 ...

 COORDINATES OF ALL ATOMS ARE (ANGS)
   ATOM   CHARGE       X              Y              Z
 ------------------------------------------------------------
 C           6.0   0.0000000000   0.0000000000   0.0000000000
 C           6.0  -1.3372387600  -0.3009393500   0.1376426400
 H           1.0  -1.7839196800  -1.1103863400   0.7503635900
 H           1.0  -2.0950874600   0.1495375000  -0.4993320400
 H           1.0   0.6106704600  -0.0353983800   0.9058301500
 H           1.0   0.1481550100  -1.1040664200  -0.2838613700

          ********************
          1 ELECTRON INTEGRALS
          ********************
 ...... END OF ONE-ELECTRON INTEGRALS ......
 STEP CPU TIME =     0.00 TOTAL CPU TIME =          0.0 (      0.0 MIN)
 TOTAL WALL CLOCK TIME=          0.0 SECONDS, CPU UTILIZATION IS    32.20%

          -------------
          GUESS OPTIONS
          -------------
          GUESS =HUCKEL            NORB  =       0          NORDER=       0
          MIX   =       F          PRTMO =       F          PUNMO =       F
          TOLZ  = 1.0E-08          TOLE  = 1.0E-05
          SYMDEN=       F          PURIFY=       F

 INITIAL GUESS ORBITALS GENERATED BY HUCKEL   ROUTINE.
 HUCKEL GUESS REQUIRES     15726 WORDS.

 SYMMETRIES FOR INITIAL GUESS ORBITALS FOLLOW.  ALPHA SET(S).
     9 ORBITALS ARE OCCUPIED (    2 CORE ORBITALS).
     3=A        4=A        5=A        6=A        7=A        8=A        9=A   
    10=A       11=A       12=A       13=A       14=A       15=A       16=A   
    17=A       18=A       19=A   

 SYMMETRIES FOR INITIAL GUESS ORBITALS FOLLOW.   BETA SET(S).
     7 ORBITALS ARE OCCUPIED (    2 CORE ORBITALS).
     3=A        4=A        5=A        6=A        7=A        8=A        9=A   
    10=A       11=A       12=A       13=A       14=A       15=A       16=A   
    17=A   
 ...... END OF INITIAL ORBITAL SELECTION ......
 STEP CPU TIME =     0.00 TOTAL CPU TIME =          0.0 (      0.0 MIN)
 TOTAL WALL CLOCK TIME=          0.1 SECONDS, CPU UTILIZATION IS    31.56%

                    ----------------------
                    AO INTEGRAL TECHNOLOGY
                    ----------------------
     S,P,L SHELL ROTATED AXIS INTEGRALS, REPROGRAMMED BY
        KAZUYA ISHIMURA (IMS) AND JOSE SIERRA (SYNSTAR).
     S,P,D,L SHELL ROTATED AXIS INTEGRALS PROGRAMMED BY
        KAZUYA ISHIMURA (INSTITUTE FOR MOLECULAR SCIENCE).
     S,P,D,F,G SHELL TO TOTAL QUARTET ANGULAR MOMENTUM SUM 5,
        ERIC PROGRAM BY GRAHAM FLETCHER (ELORET AND NASA ADVANCED
        SUPERCOMPUTING DIVISION, AMES RESEARCH CENTER).
     S,P,D,F,G,L SHELL GENERAL RYS QUADRATURE PROGRAMMED BY
        MICHEL DUPUIS (PACIFIC NORTHWEST NATIONAL LABORATORY).

          --------------------
          2 ELECTRON INTEGRALS
          --------------------

 THE -PK- OPTION IS OFF, THE INTEGRALS ARE NOT IN SUPERMATRIX FORM.
 STORING   15000 INTEGRALS/RECORD ON DISK, USING 12 BYTES/INTEGRAL.
 TWO ELECTRON INTEGRAL EVALUATION REQUIRES   90532 WORDS OF MEMORY.
 SCHWARZ INEQUALITY OVERHEAD:       741 INTEGRALS, T=        0.00
 II,JST,KST,LST =  1  1  1  1 NREC =         1 INTLOC =    1
 II,JST,KST,LST =  2  1  1  1 NREC =         1 INTLOC =    2
 II,JST,KST,LST =  3  1  1  1 NREC =         1 INTLOC =   34
 II,JST,KST,LST =  4  1  1  1 NREC =         1 INTLOC =  214
 II,JST,KST,LST =  5  1  1  1 NREC =         1 INTLOC = 1189
 II,JST,KST,LST =  6  1  1  1 NREC =         1 INTLOC = 3244
 II,JST,KST,LST =  7  1  1  1 NREC =         2 INTLOC =  996
 II,JST,KST,LST =  8  1  1  1 NREC =         3 INTLOC = 8255
 II,JST,KST,LST =  9  1  1  1 NREC =         7 INTLOC = 6199
 II,JST,KST,LST = 10  1  1  1 NREC =         8 INTLOC = 6107
 II,JST,KST,LST = 11  1  1  1 NREC =         9 INTLOC = 7507
 II,JST,KST,LST = 12  1  1  1 NREC =        10 INTLOC =10489
 II,JST,KST,LST = 13  1  1  1 NREC =        12 INTLOC =  157
 II,JST,KST,LST = 14  1  1  1 NREC =        13 INTLOC = 6604
 II,JST,KST,LST = 15  1  1  1 NREC =        14 INTLOC =14950
 II,JST,KST,LST = 16  1  1  1 NREC =        16 INTLOC =10294
 SCHWARZ INEQUALITY TEST SKIPPED          11 INTEGRAL BLOCKS.
 TOTAL NUMBER OF NONZERO TWO-ELECTRON INTEGRALS =              262748
         18 INTEGRAL RECORDS WERE STORED ON DISK FILE  8.
  ...... END OF TWO-ELECTRON INTEGRALS .....
 STEP CPU TIME =     0.06 TOTAL CPU TIME =          0.1 (      0.0 MIN)
 TOTAL WALL CLOCK TIME=          0.2 SECONDS, CPU UTILIZATION IS    46.67%

          ---------------------------
            RO-BHHLYP SCF CALCULATION
          ---------------------------

     NUCLEAR ENERGY =        32.9326010217
     MAXIT = 30     NPUNCH=  2     MULT=  3
     EXTRAP=T  DAMP=F  SHIFT=F  RSTRCT=F  DIIS=T  SOSCF=F
         DENSITY MATRIX CONVERGENCE THRESHOLD=  1.00E-06
     COARSE -> FINE DFT GRID SWITCH THRESHOLD=  3.00E-04 (SWITCH IN $DFT)
                   HF -> DFT SWITCH THRESHOLD=  5.00E-03 (SWOFF IN $DFT)
     ROHF CANONICALIZATION PARAMETERS
             C-C     O-O     V-V
     ALPHA -0.5000  0.5000  1.5000
     BETA   1.5000  0.5000 -0.5000
     MEMORY REQUIRED FOR UHF/ROHF ITERS=    270142 WORDS.

 DFT CODE IS SWITCHING FROM THE FINE GRID NRAD= 96,  NLEB=  302
                      TO THE COARSE GRID NRAD0= 24, NLEB0=  110

     EXCHANGE FUNCTIONAL   =B88&HFX   
     CORRELATION FUNCTIONAL=LYP88     
     DFT THRESHOLD         =.230E-07
     GRID CHANGE THRESHOLD =.300E-03
 FOR AN EULER-MACLAURIN QUADRATURE USING  96 RADIAL POINTS:
 SMALLEST GAUSSIAN PRIMITIVE EXPONENT=        0.1612777588 OF TYPE -S-
 ON ATOM NUMBER   3 HAS RADIAL NORMALIZATION=  1.000000
  LARGEST GAUSSIAN PRIMITIVE EXPONENT=     3047.5248800000 OF TYPE -S-
 ON ATOM NUMBER   1 HAS RADIAL NORMALIZATION=  1.000000
 DFT IS SWITCHED OFF, PERFORMING PURE SCF UNTIL SWOFF THRESHOLD IS REACHED.

 ITER EX      TOTAL ENERGY        E CHANGE  DENSITY CHANGE    DIIS ERROR
          * * *   INITIATING DIIS PROCEDURE   * * *
   1  0      -77.6703919764   -77.6703919764   0.201066347   0.344975777
   2  1      -77.8871099426    -0.2167179662   0.053381496   0.035786219
   3  2      -77.8935740990    -0.0064641565   0.016821535   0.012296112
   4  3      -77.8942565298    -0.0006824308   0.004529987   0.003118975
 CONVERGED TO SWOFF, SO DFT CALCULATION IS NOW SWITCHED ON.
          * * *   INITIATING DIIS PROCEDURE   * * *
   5  4      -78.3688229460    -0.4745664162   0.039489299   0.051655153
   6  5      -78.3722769652    -0.0034540192   0.021152418   0.013118871
   7  6      -78.3726333631    -0.0003563979   0.008889502   0.009197229
   8  7      -78.3730547516    -0.0004213885   0.000308604   0.000184568
   9  8      -78.3730549766    -0.0000002250   0.000142871   0.000121978
 DFT CODE IS SWITCHING BACK TO THE FINE GRID
          * * *   INITIATING DIIS PROCEDURE   * * *
  10  9      -78.3732255386    -0.0001705620   0.000584627   0.000605326
  11 10      -78.3732265098    -0.0000009712   0.000126044   0.000089653
  12 11      -78.3732265195    -0.0000000097   0.000080855   0.000084815
  13 12      -78.3732265505    -0.0000000310   0.000009947   0.000009847
  14 13      -78.3732265510    -0.0000000005   0.000002081   0.000001199
  15 14      -78.3732265510    -0.0000000000   0.000000880   0.000000799
  16 15      -78.3732265510     0.0000000000   0.000000155   0.000000074

          -----------------
          DENSITY CONVERGED
          -----------------
     TIME TO FORM FOCK OPERATORS=       6.1 SECONDS (       0.4 SEC/ITER)
     TIME TO SOLVE SCF EQUATIONS=       0.0 SECONDS (       0.0 SEC/ITER)

 THE CONVERGED ORBITALS WILL UNDERGO GUEST/SAUNDERS
 CANONICALIZATION FOR SPIN-FLIP TDDFT.

 FINAL RO-BHHLYP ENERGY IS      -78.3732265510 AFTER  16 ITERATIONS
 DFT EXCHANGE + CORRELATION ENERGY =        -6.3607821789
 TOTAL ELECTRON NUMBER             =        15.9999667353

          --------------------
          SPIN SZ   =    1.000
          S-SQUARED =    2.000
          --------------------

          ------------
          EIGENVECTORS
          ------------

                      1          2          3          4          5
                  -10.6096   -10.5791    -0.8791    -0.6606    -0.5035
                     A          A          A          A          A   
    1  C  1  S    0.993964  -0.013708  -0.155295   0.104873   0.018450
    2  C  1  S    0.040846  -0.000607   0.299296  -0.205012  -0.047399
    3  C  1  X   -0.000461   0.000464  -0.106256  -0.130375   0.282063
    4  C  1  Y   -0.000869   0.000078  -0.086924   0.069812  -0.006073
    5  C  1  Z    0.000463  -0.000063   0.042015  -0.081248   0.162492
    6  C  1  S   -0.015135   0.002392   0.240921  -0.239944  -0.005807
    7  C  1  X    0.001525  -0.001608  -0.012306  -0.037726   0.086886
    8  C  1  Y    0.002441   0.000247  -0.032417   0.040676  -0.005583
    9  C  1  Z   -0.001608   0.000005   0.019864  -0.037208   0.065085
   10  C  1 XX   -0.006111  -0.000309   0.007147   0.010907  -0.011913
   11  C  1 YY   -0.006483  -0.000031   0.000480  -0.005177   0.001826
   12  C  1 ZZ   -0.006432   0.000066  -0.006871  -0.005550   0.015606
   13  C  1 XY    0.000046  -0.000096   0.005042   0.004733  -0.002339
   14  C  1 XZ    0.000083   0.000039   0.003736  -0.010750   0.006460
   15  C  1 YZ    0.000019   0.000025   0.001972  -0.001563  -0.005570
   16  C  2  S    0.013343   0.993759  -0.148837  -0.129712   0.002445
   17  C  2  S    0.000364   0.040837   0.282044   0.252547  -0.007664
   18  C  2  X   -0.000277   0.000386   0.110996  -0.188321  -0.210654
   19  C  2  Y   -0.000093  -0.000129   0.009053  -0.020915  -0.247855
   20  C  2  Z   -0.000037  -0.000183  -0.013500  -0.021494   0.222916
   21  C  2  S    0.004620  -0.011750   0.216465   0.293918  -0.009746
   22  C  2  X    0.002434  -0.000497   0.010463  -0.051568  -0.075844
   23  C  2  Y    0.000242  -0.000022  -0.007046  -0.016264  -0.107376
   24  C  2  Z    0.000548   0.000432  -0.002083  -0.002626   0.095962
   25  C  2 XX   -0.000437  -0.006208   0.014003  -0.005462  -0.008330
   26  C  2 YY   -0.000210  -0.006738  -0.005949   0.003356   0.013850
   27  C  2 ZZ   -0.000170  -0.006730  -0.008587   0.002952   0.004575
   28  C  2 XY   -0.000068   0.000106   0.002352   0.000510   0.006246
   29  C  2 XZ    0.000143   0.000002  -0.000548   0.004773  -0.000810
   30  C  2 YZ   -0.000003  -0.000154  -0.008167  -0.016510  -0.009228
   31  H  3  S   -0.000158  -0.000239   0.071399   0.147312   0.235224
   32  H  3  S   -0.000215   0.002025   0.008920   0.069940   0.190280
   33  H  4  S   -0.000060  -0.000222   0.071851   0.168635  -0.053428
   34  H  4  S    0.000638   0.002248   0.015215   0.080380  -0.034538
   35  H  5  S    0.000071  -0.000031   0.089208  -0.154453   0.156442
   36  H  5  S    0.002959   0.000341   0.012209  -0.070555   0.127279
   37  H  6  S    0.000147   0.000043   0.113465  -0.105020  -0.003721
   38  H  6  S    0.002755   0.000883   0.020931  -0.047182   0.006483

                      6          7          8          9         10
                   -0.4742    -0.4319    -0.1803    -0.0898     0.1558
                     A          A          A          A          A   
    1  C  1  S   -0.027755   0.002908   0.090669  -0.001847  -0.086552
    2  C  1  S    0.054754  -0.017305  -0.206418  -0.007942   0.077605
    3  C  1  X    0.122065   0.276670  -0.127469   0.045819   0.157034
    4  C  1  Y    0.247954  -0.190286  -0.364167  -0.089927  -0.207750
    5  C  1  Z    0.212548  -0.174487   0.380949  -0.078405  -0.024425
    6  C  1  S    0.087948   0.029264  -0.337337   0.084521   1.675127
    7  C  1  X    0.037980   0.110137  -0.109250   0.025350   0.285134
    8  C  1  Y    0.098619  -0.107312  -0.285055  -0.109125  -0.749510
    9  C  1  Z    0.093513  -0.076999   0.288162  -0.071487   0.085291
   10  C  1 XX    0.006172  -0.014862   0.010782  -0.005527  -0.000081
   11  C  1 YY   -0.027125   0.024990   0.005614   0.011036  -0.009364
   12  C  1 ZZ    0.017366  -0.003344   0.001419  -0.004946  -0.011113
   13  C  1 XY   -0.009367  -0.011177  -0.000156  -0.021753   0.009053
   14  C  1 XZ    0.015748   0.012955   0.004655  -0.023622   0.002031
   15  C  1 YZ   -0.005398   0.009711   0.002407   0.003357  -0.002526
   16  C  2  S   -0.002604   0.030855  -0.021917   0.003512  -0.066602
   17  C  2  S    0.010049  -0.067306   0.049201  -0.003737   0.126855
   18  C  2  X   -0.154731  -0.273220   0.056531  -0.124758  -0.053313
   19  C  2  Y    0.224515   0.003481   0.067121   0.392693  -0.096454
   20  C  2  Z   -0.099128  -0.220718  -0.046002   0.419894   0.062502
   21  C  2  S    0.000562  -0.092677   0.015324  -0.064097   0.684596
   22  C  2  X   -0.070867  -0.131076  -0.004075  -0.136024  -0.501845
   23  C  2  Y    0.107951   0.016155   0.036169   0.391309  -0.237249
   24  C  2  Z   -0.053008  -0.118232  -0.032921   0.410013   0.116961
   25  C  2 XX    0.002240   0.002887   0.005755   0.003798   0.009845
   26  C  2 YY   -0.003316  -0.000215  -0.008781  -0.000354  -0.012468
   27  C  2 ZZ    0.004843   0.008369  -0.002912  -0.000569  -0.002285
   28  C  2 XY    0.000668  -0.020779  -0.019052  -0.007645  -0.003297
   29  C  2 XZ    0.020595   0.006378   0.017407  -0.002431  -0.000054
   30  C  2 YZ   -0.001048  -0.000047   0.007358  -0.001501  -0.005035
   31  H  3  S   -0.100081  -0.058958  -0.105201  -0.014671  -0.006887
   32  H  3  S   -0.080202  -0.050516  -0.159358  -0.009803  -0.890880
   33  H  4  S    0.169905   0.186032   0.079831   0.007559   0.014066
   34  H  4  S    0.137195   0.162911   0.098823   0.021143  -0.404996
   35  H  5  S    0.197594   0.006465   0.083049  -0.097874   0.005464
   36  H  5  S    0.183463  -0.000826   0.088762  -0.173706  -0.787092
   37  H  6  S   -0.170097   0.200491   0.053670   0.128696  -0.075861
   38  H  6  S   -0.159143   0.217958   0.044980   0.251411  -1.450771

                     11         12         13         14         15
                    0.1942     0.2027     0.2462     0.3652     0.5571
                     A          A          A          A          A   
    1  C  1  S    0.080662   0.029394   0.047680  -0.076838  -0.014077
    2  C  1  S   -0.075499  -0.028825  -0.053368   0.019423  -0.163343
    3  C  1  X   -0.014530  -0.081117  -0.002358  -0.210974   0.605969
    4  C  1  Y    0.081231  -0.219593   0.006441   0.030902  -0.096394
    5  C  1  Z   -0.090147  -0.292024  -0.096228  -0.106162  -0.123845
    6  C  1  S   -1.335052  -0.611176  -1.092404   2.664146  -0.450703
    7  C  1  X    0.101843  -0.195412   0.010243  -2.412694  -0.669591
    8  C  1  Y    0.355838  -0.632477   0.440946  -0.353151   0.082199
    9  C  1  Z   -0.291121  -0.884841  -0.732623  -0.075122  -0.010749
   10  C  1 XX    0.012981   0.012456  -0.008089  -0.020284  -0.075464
   11  C  1 YY    0.001274  -0.007099   0.003755   0.011614   0.030494
   12  C  1 ZZ    0.005895   0.002683   0.004914   0.005713   0.018498
   13  C  1 XY   -0.001278  -0.000637   0.015703   0.003242  -0.015831
   14  C  1 XZ    0.000594   0.011155  -0.017934   0.004037   0.020050
   15  C  1 YZ    0.010150  -0.002796  -0.004927   0.012359   0.004733
   16  C  2  S   -0.120899   0.011994  -0.011905   0.073753  -0.026821
   17  C  2  S    0.129215   0.005949  -0.019937  -0.072150  -0.237919
   18  C  2  X   -0.161741   0.077881   0.104766  -0.209988  -0.499232
   19  C  2  Y    0.006151   0.116545  -0.260747  -0.103218  -0.102791
   20  C  2  Z   -0.034140  -0.064768   0.263700   0.042820  -0.065193
   21  C  2  S    2.135726  -0.367131   0.341382  -2.338193   0.140623
   22  C  2  X   -0.362432   0.250780   0.745043  -2.389555   1.332805
   23  C  2  Y    0.025088   0.440058  -0.903956  -0.792216   0.194659
   24  C  2  Z   -0.108386   0.019011   1.083479   0.442593   0.021112
   25  C  2 XX   -0.014111   0.000937  -0.005314   0.004148  -0.082305
   26  C  2 YY   -0.003916  -0.011413  -0.003010  -0.006243   0.006645
   27  C  2 ZZ   -0.004805   0.013941   0.001609  -0.005646   0.017320
   28  C  2 XY    0.001568  -0.001391  -0.008136   0.013515  -0.039328
   29  C  2 XZ   -0.004909  -0.017618   0.002169  -0.016356   0.006036
   30  C  2 YZ    0.000565  -0.010043  -0.001213   0.013108  -0.016825
   31  H  3  S   -0.038019   0.043791  -0.038411  -0.001406   0.053664
   32  H  3  S   -1.009907   0.755713  -1.431172  -0.902224   0.259209
   33  H  4  S   -0.064636  -0.016581   0.015079  -0.066623   0.086378
   34  H  4  S   -1.459883  -0.014132   1.701858  -0.235759   0.199327
   35  H  5  S    0.023218   0.078946  -0.038188   0.048741   0.070718
   36  H  5  S    0.840442   1.534714   0.884135   0.722025   0.088733
   37  H  6  S    0.013644  -0.096266  -0.028217   0.109140   0.176006
   38  H  6  S    0.612791  -0.976074   0.094673  -0.071813  -0.407675

                     16         17         18         19         20
                    0.6257     0.6452     0.6799     0.7380     0.7741
                     A          A          A          A          A   
    1  C  1  S    0.004842   0.025553   0.002589  -0.030717   0.022090
    2  C  1  S   -0.039786  -0.273638  -0.117325   0.132808   0.245894
    3  C  1  X   -0.158991  -0.086470   0.109520  -0.594186  -0.036014
    4  C  1  Y   -0.531608  -0.697434   0.192994   0.173889   0.003799
    5  C  1  Z   -0.343356   0.589376   0.237275   0.294269  -0.513971
    6  C  1  S   -0.035963   0.050111   0.303879  -0.438558  -0.851366
    7  C  1  X    0.541182  -0.074627  -0.276940   0.651870   0.679062
    8  C  1  Y    0.957186   0.790923  -0.534087  -0.269630  -0.017141
    9  C  1  Z    0.704127  -0.652872  -0.469791  -0.440023   1.248579
   10  C  1 XX   -0.033762  -0.054774   0.013321  -0.107716   0.055883
   11  C  1 YY    0.080983  -0.013334  -0.038072   0.041760   0.043808
   12  C  1 ZZ   -0.068015  -0.009649   0.009887   0.013768  -0.033696
   13  C  1 XY    0.027475  -0.009867   0.026128  -0.040648  -0.040735
   14  C  1 XZ   -0.025293   0.015982   0.045322  -0.001242   0.050982
   15  C  1 YZ    0.026856   0.010377  -0.008388  -0.007381   0.035144
   16  C  2  S    0.012994   0.005484  -0.009374   0.075174   0.010462
   17  C  2  S   -0.088766  -0.115642  -0.047901   0.228053   0.230634
   18  C  2  X    0.072320  -0.022590   0.188907  -0.550362   0.183036
   19  C  2  Y   -0.191913  -0.096134  -0.694817  -0.174884  -0.425302
   20  C  2  Z   -0.440077   0.223139  -0.601647  -0.138738   0.354043
   21  C  2  S    0.513699   0.267915  -0.183233  -0.637844   0.049777
   22  C  2  X   -0.015177  -0.172577  -0.465936   1.176628   0.178446
   23  C  2  Y   -0.076464   0.230301   0.991491   0.306422   1.356516
   24  C  2  Z    0.327054  -0.386575   0.751998   0.309661  -1.337838
   25  C  2 XX    0.050724   0.014804  -0.043289   0.138551  -0.012952
   26  C  2 YY   -0.019737  -0.004496  -0.002251   0.018459   0.087068
   27  C  2 ZZ   -0.030698  -0.020452   0.007606   0.003565  -0.003504
   28  C  2 XY   -0.042831   0.008549  -0.007499   0.045806   0.062079
   29  C  2 XZ    0.003187  -0.020283  -0.024191   0.026745  -0.095363
   30  C  2 YZ    0.019484   0.010373   0.010816  -0.107677  -0.059342
   31  H  3  S   -0.147947   0.182321  -0.015157   0.450736   0.574782
   32  H  3  S   -0.008269   0.074237   0.035614   0.152107   0.533151
   33  H  4  S    0.127292  -0.243398  -0.155681   0.465053  -0.222954
   34  H  4  S   -0.095041  -0.270587  -0.063302   0.378907  -0.271490
   35  H  5  S   -0.395642   0.155213   0.150539  -0.094580   0.124651
   36  H  5  S   -0.167284   0.156221  -0.099762   0.118444  -0.625544
   37  H  6  S    0.309315   0.090538  -0.234123   0.159150   0.166817
   38  H  6  S    0.098752   0.141900   0.342451  -0.383278   0.413764

                     21         22         23         24         25
                    0.9273     0.9453     0.9849     1.0373     1.0619
                     A          A          A          A          A   
    1  C  1  S    0.011120  -0.035503   0.022405   0.029530  -0.041585
    2  C  1  S    0.402686   0.301762   0.458192  -0.957823   0.460816
    3  C  1  X    0.072888  -0.000519   0.642034  -0.135480  -0.122729
    4  C  1  Y   -0.533238  -0.218911   0.020861   0.184224  -0.111055
    5  C  1  Z   -0.295038  -0.077821   0.414113  -0.235322   0.003962
    6  C  1  S   -0.643802  -0.365504  -0.579805   2.075789  -1.684549
    7  C  1  X   -0.597572  -0.198614  -1.468181  -0.073294   1.011717
    8  C  1  Y    1.113465   0.060569   0.196368  -0.259673  -0.023332
    9  C  1  Z    0.010505   0.274101  -0.859322   0.248509   0.178205
   10  C  1 XX    0.070462  -0.038148   0.120336  -0.064670  -0.030749
   11  C  1 YY   -0.109858  -0.015617   0.075063  -0.047134  -0.015509
   12  C  1 ZZ    0.098431   0.063713  -0.066823   0.006108   0.075413
   13  C  1 XY    0.034444   0.054400   0.039017   0.056028  -0.059722
   14  C  1 XZ    0.088612  -0.068130  -0.092116   0.050128  -0.027187
   15  C  1 YZ   -0.045854  -0.062223   0.018836   0.016061  -0.021724
   16  C  2  S    0.040645   0.019813   0.028275   0.008078   0.003493
   17  C  2  S    0.428982   0.213078   0.346605  -0.514082  -1.712836
   18  C  2  X   -0.002118  -0.070569   0.623094   0.519829   0.026685
   19  C  2  Y    0.328257  -0.617852   0.085290  -0.037417   0.053067
   20  C  2  Z   -0.316041   0.600586  -0.046806   0.170087   0.026038
   21  C  2  S   -1.162137  -0.743696  -1.074110   0.693111   4.221765
   22  C  2  X   -0.011110  -0.170119  -1.089816  -0.857567   0.295698
   23  C  2  Y   -0.894882   1.097825  -0.269393  -0.110376   0.228907
   24  C  2  Z    1.014238  -1.044944   0.289517  -0.092740  -0.384629
   25  C  2 XX    0.046031   0.107818  -0.026647  -0.071371  -0.093277
   26  C  2 YY    0.012501  -0.053968   0.041300  -0.031406  -0.085546
   27  C  2 ZZ    0.026813  -0.000097   0.025845   0.015164  -0.088761
   28  C  2 XY   -0.017296  -0.091450  -0.037845  -0.101869   0.058726
   29  C  2 XZ   -0.041841   0.112698   0.076038   0.053207   0.006887
   30  C  2 YZ   -0.090144   0.015853  -0.092334  -0.072573  -0.019025
   31  H  3  S    0.339947  -0.533891   0.425989   0.078830   0.394182
   32  H  3  S   -0.830978   1.477395  -0.513287  -0.347658  -0.979947
   33  H  4  S    0.217717   0.518982   0.472830   0.710503   0.107139
   34  H  4  S    0.728944  -1.136659  -0.517283  -1.135114  -1.029749
   35  H  5  S    0.525822  -0.118795  -0.469924   0.626023  -0.307400
   36  H  5  S   -0.352290   0.119354   1.654881  -0.953355   0.011234
   37  H  6  S   -0.612528  -0.506027   0.199887   0.327851  -0.439275
   38  H  6  S    1.631022   0.753778   0.298722  -0.577977   0.172958

                     26         27         28         29         30
                    1.2355     1.6205     1.7211     1.8031     1.9272
                     A          A          A          A          A   
    1  C  1  S   -0.104043  -0.051728  -0.030622   0.007838  -0.042927
    2  C  1  S   -1.645567  -0.537224  -0.310847   0.143588  -0.362291
    3  C  1  X    0.099416   0.010639   0.021954   0.019012   0.029526
    4  C  1  Y   -0.014237   0.129774   0.031353  -0.058939  -0.042254
    5  C  1  Z   -0.164346   0.067439   0.003935   0.063230   0.117790
    6  C  1  S    5.624387   1.912342   1.093627  -0.379031   1.499521
    7  C  1  X   -1.249244  -0.249461  -0.107023   0.063719  -0.514385
    8  C  1  Y   -1.133738  -0.573520  -0.267464   0.292164  -0.213565
    9  C  1  Z    1.077346   0.504019   0.433561  -0.042311  -0.134220
   10  C  1 XX   -0.038060  -0.098830  -0.073415   0.175001   0.273168
   11  C  1 YY   -0.180476   0.264469  -0.243610   0.026605  -0.030385
   12  C  1 ZZ   -0.045831  -0.231157   0.278365  -0.198679  -0.280394
   13  C  1 XY   -0.149205   0.376548   0.311754  -0.293169  -0.408370
   14  C  1 XZ   -0.170066   0.290687  -0.024622   0.335234   0.349242
   15  C  1 YZ   -0.136508  -0.235160   0.603387  -0.344651   0.540287
   16  C  2  S    0.025611   0.006121   0.015386  -0.008535   0.013085
   17  C  2  S    0.468241  -0.018490   0.155955  -0.050478   0.031153
   18  C  2  X    0.013240  -0.079140  -0.038076   0.039698  -0.035861
   19  C  2  Y    0.059909   0.119690   0.019627  -0.077710  -0.057386
   20  C  2  Z   -0.022511   0.099374   0.046553   0.065727   0.117876
   21  C  2  S   -3.276302  -0.726932  -0.849261   0.379914  -0.898958
   22  C  2  X   -1.681937  -0.555188  -0.172858  -0.004378  -0.297790
   23  C  2  Y   -0.090998   0.137736   0.208041  -0.212571  -0.596211
   24  C  2  Z   -0.392687  -0.392032  -0.294603   0.159219   0.458780
   25  C  2 XX   -0.071102   0.108081   0.003968  -0.107602  -0.095626
   26  C  2 YY    0.082864  -0.062259  -0.498948  -0.530095   0.341088
   27  C  2 ZZ    0.061178  -0.036136   0.499527   0.623497  -0.238587
   28  C  2 XY    0.123105  -0.443064   0.023240   0.289643   0.016298
   29  C  2 XZ    0.139051  -0.354383  -0.142955  -0.076082  -0.350086
   30  C  2 YZ   -0.080076  -0.192643   0.118392  -0.237601  -0.079395
   31  H  3  S    0.307875   0.153990   0.223696  -0.303841  -0.355564
   32  H  3  S   -0.015790   0.040592   0.206503  -0.086199  -0.167791
   33  H  4  S   -0.089012  -0.154170   0.019991   0.108798   0.445168
   34  H  4  S   -0.176435  -0.206521  -0.021344  -0.051662   0.116181
   35  H  5  S   -0.513039  -0.388545  -0.278059  -0.116223  -0.251115
   36  H  5  S   -0.848757  -0.294851  -0.270832   0.064936   0.029261
   37  H  6  S   -0.591638  -0.293413  -0.129947   0.135928  -0.336886
   38  H  6  S   -0.432458  -0.247910  -0.025956   0.129629  -0.242257

                     31         32         33         34         35
                    2.1414     2.1885     2.3291     2.4799     2.6784
                     A          A          A          A          A   
    1  C  1  S   -0.011370   0.018113   0.000324  -0.026100   0.001365
    2  C  1  S   -0.309808   0.346441   0.019962  -0.118364   0.061509
    3  C  1  X    0.276653  -0.109335  -0.070585  -0.031892   0.046305
    4  C  1  Y    0.098347  -0.039218  -0.018439  -0.082331   0.107696
    5  C  1  Z   -0.045791   0.036723  -0.107649  -0.022215  -0.056521
    6  C  1  S    0.006476  -0.708554  -0.081898   0.786271  -0.254469
    7  C  1  X   -0.132093   0.418147  -0.144624  -0.186804   0.165111
    8  C  1  Y   -0.075489   0.236414  -0.170810  -0.411203   0.140065
    9  C  1  Z   -0.014556   0.103560  -0.273635  -0.101009   0.043686
   10  C  1 XX    0.529672  -0.174900  -0.017538  -0.110556   0.116527
   11  C  1 YY   -0.437419  -0.228086   0.721610   0.251414  -0.305859
   12  C  1 ZZ   -0.278411   0.452907  -0.706566  -0.145241   0.154527
   13  C  1 XY    0.273040   0.015228  -0.112032   0.583694  -0.415832
   14  C  1 XZ   -0.069838  -0.005201  -0.327616   0.637865   0.613972
   15  C  1 YZ    0.011394   0.146530   0.381262   0.121067   0.084953
   16  C  2  S   -0.038590  -0.034282  -0.011686   0.008185  -0.004017
   17  C  2  S   -0.436965  -0.066215  -0.149654   0.039478   0.089202
   18  C  2  X   -0.282428   0.048997  -0.096357  -0.049727   0.086998
   19  C  2  Y   -0.076215  -0.013008   0.058600   0.059312   0.044344
   20  C  2  Z    0.032613  -0.016824  -0.069605   0.088286  -0.025013
   21  C  2  S    0.805845   1.029601   0.223302  -0.511439   0.148830
   22  C  2  X    0.430423  -0.257660  -0.069681  -0.328990   0.099289
   23  C  2  Y    0.107194  -0.031752   0.021985   0.129472   0.051542
   24  C  2  Z   -0.063175  -0.128233   0.096533   0.165695  -0.075336
   25  C  2 XX    0.557111  -0.186708   0.093878  -0.260792   0.437116
   26  C  2 YY   -0.315349   0.176809  -0.260726   0.327736  -0.315323
   27  C  2 ZZ   -0.466252   0.004959   0.164735  -0.055397  -0.114790
   28  C  2 XY    0.246861  -0.141411  -0.146763   0.557050  -0.600279
   29  C  2 XZ    0.042970   0.163927   0.381520   0.560398   0.674713
   30  C  2 YZ   -0.269167  -0.913216  -0.245974   0.041862   0.222548
   31  H  3  S   -0.110883  -0.484833   0.066112  -0.064110   0.482770
   32  H  3  S    0.002324  -0.038125  -0.159470   0.022625  -0.164596
   33  H  4  S   -0.098614  -0.499254  -0.381156   0.012257  -0.461061
   34  H  4  S   -0.082554  -0.139642   0.081652  -0.032168   0.195377
   35  H  5  S    0.087273  -0.155641   0.598187  -0.228831  -0.340011
   36  H  5  S   -0.058205   0.044851  -0.087595   0.038972   0.115690
   37  H  6  S    0.236229   0.195116  -0.519074  -0.218725   0.146879
   38  H  6  S   -0.256041   0.077100   0.176006  -0.078801  -0.005741

                     36         37         38
                    2.7957     4.2628     4.3745
                     A          A          A   
    1  C  1  S   -0.068723  -0.350234   0.336666
    2  C  1  S    0.219613   2.094962  -2.042689
    3  C  1  X   -0.644202  -0.087053  -0.309410
    4  C  1  Y   -0.125675   0.039900  -0.107487
    5  C  1  Z    0.070636  -0.034028   0.071290
    6  C  1  S    1.910901   1.521010  -1.878914
    7  C  1  X   -1.099958   0.009621   0.244269
    8  C  1  Y   -0.170766  -0.322054   0.243203
    9  C  1  Z    0.063020   0.206515  -0.220663
   10  C  1 XX    1.015587  -1.234938   1.647763
   11  C  1 YY   -0.548784  -1.293956   1.285014
   12  C  1 ZZ   -0.505170  -1.344299   1.264734
   13  C  1 XY    0.331840   0.029305   0.088398
   14  C  1 XZ   -0.175814  -0.026834  -0.039389
   15  C  1 YZ   -0.066610  -0.001095  -0.016842
   16  C  2  S    0.075493  -0.332760  -0.331449
   17  C  2  S   -0.224903   2.183066   2.108807
   18  C  2  X   -0.635189   0.076843  -0.278929
   19  C  2  Y   -0.139679   0.030942  -0.064926
   20  C  2  Z    0.049797   0.012002   0.030591
   21  C  2  S   -1.904577   0.773118   1.819548
   22  C  2  X   -1.099039  -0.261211   0.195407
   23  C  2  Y   -0.293517  -0.032894   0.006637
   24  C  2  Z    0.130448  -0.104215   0.032217
   25  C  2 XX   -0.909943  -1.245760  -1.651196
   26  C  2 YY    0.434535  -1.282970  -1.286401
   27  C  2 ZZ    0.535389  -1.297524  -1.266569
   28  C  2 XY   -0.486072   0.020184  -0.108033
   29  C  2 XZ    0.219080  -0.035690   0.060882
   30  C  2 YZ    0.077424   0.019545   0.014871
   31  H  3  S    0.081346   0.126316   0.098543
   32  H  3  S   -0.117779  -0.265128  -0.341974
   33  H  4  S   -0.048127   0.140254   0.093404
   34  H  4  S   -0.010223  -0.385908  -0.277779
   35  H  5  S    0.026619   0.089900  -0.064275
   36  H  5  S    0.067510  -0.443937   0.374268
   37  H  6  S    0.136265   0.025818  -0.056767
   38  H  6  S   -0.047347  -0.442989   0.255816
 ...... END OF ROHF CALCULATION ......
 STEP CPU TIME =     6.16 TOTAL CPU TIME =          6.2 (      0.1 MIN)
 TOTAL WALL CLOCK TIME=          6.4 SECONDS, CPU UTILIZATION IS    97.04%

     ---------------------------------------------------------------------
     PROPERTIES FOR THE BHHLYP   DFT FUNCTIONAL (ROHF TYPE) DENSITY MATRIX
     ---------------------------------------------------------------------

          -----------------
          ENERGY COMPONENTS
          -----------------

         WAVEFUNCTION NORMALIZATION =       1.0000000000

                ONE ELECTRON ENERGY =    -169.1910648826
                TWO ELECTRON ENERGY =      57.8852373099
           NUCLEAR REPULSION ENERGY =      32.9326010217
                                      ------------------
                       TOTAL ENERGY =     -78.3732265510

 ELECTRON-ELECTRON POTENTIAL ENERGY =      57.8852373099
  NUCLEUS-ELECTRON POTENTIAL ENERGY =    -247.1392283378
   NUCLEUS-NUCLEUS POTENTIAL ENERGY =      32.9326010217
                                      ------------------
             TOTAL POTENTIAL ENERGY =    -156.3213900062
               TOTAL KINETIC ENERGY =      77.9481634552
                 VIRIAL RATIO (V/T) =       2.0054531509

          ---------------------------------------
          MULLIKEN AND LOWDIN POPULATION ANALYSES
          ---------------------------------------

     ATOMIC MULLIKEN POPULATION IN EACH MOLECULAR ORBITAL

                      1          2          3          4          5

                  2.000000   2.000000   2.000000   2.000000   2.000000

    1             1.997291   0.000994   0.934075   0.513137   0.507796
    2             0.001581   1.998126   0.802552   0.771193   0.806452
    3            -0.000006   0.000377   0.041621   0.185747   0.459246
    4             0.000020   0.000431   0.046869   0.247235   0.019977
    5             0.000593   0.000010   0.064491   0.195271   0.205557
    6             0.000521   0.000062   0.110392   0.087417   0.000972

                      6          7          8          9

                  2.000000   2.000000   1.000000   1.000000

    1             0.665206   0.722934   0.908329   0.030996
    2             0.480568   0.628696   0.016905   0.891021
    3             0.076481   0.023107   0.036764   0.000320
    4             0.228804   0.267539   0.017090   0.000609
    5             0.316089   0.000210   0.015643   0.026219
    6             0.232853   0.357515   0.005269   0.050836

     ATOMIC SPIN POPULATION (ALPHA MINUS BETA)
       ATOM         MULL.POP.                    LOW.POP.
    1 C             0.939325                     0.930200
    2 C             0.907925                     0.896067
    3 H             0.037085                     0.042140
    4 H             0.017699                     0.018642
    5 H             0.041861                     0.046030
    6 H             0.056105                     0.066921

               ----- POPULATIONS IN EACH AO -----
                             MULLIKEN      LOWDIN
              1  C  1  S      1.99386     1.97985
              2  C  1  S      0.68856     0.37525
              3  C  1  X      0.74186     0.66393
              4  C  1  Y      0.61065     0.55360
              5  C  1  Z      0.62233     0.56553
              6  C  1  S      0.68208     0.36358
              7  C  1  X      0.21552     0.38290
              8  C  1  Y      0.35043     0.44094
              9  C  1  Z      0.34139     0.43150
             10  C  1 XX      0.00566     0.17191
             11  C  1 YY      0.00649     0.15002
             12  C  1 ZZ      0.00095     0.14899
             13  C  1 XY      0.00709     0.01506
             14  C  1 XZ      0.01202     0.02399
             15  C  1 YZ      0.00188     0.00294
             16  C  2  S      1.99353     1.98026
             17  C  2  S      0.67634     0.36583
             18  C  2  X      0.72924     0.65299
             19  C  2  Y      0.64708     0.59722
             20  C  2  Z      0.65702     0.61143
             21  C  2  S      0.61500     0.34470
             22  C  2  X      0.22130     0.37743
             23  C  2  Y      0.40246     0.48169
             24  C  2  Z      0.42620     0.49084
             25  C  2 XX      0.01341     0.17969
             26  C  2 YY     -0.00280     0.14017
             27  C  2 ZZ     -0.00745     0.13256
             28  C  2 XY      0.01110     0.02276
             29  C  2 XZ      0.00977     0.02007
             30  C  2 YZ      0.00489     0.00722
             31  H  3  S      0.50649     0.46472
             32  H  3  S      0.31717     0.36365
             33  H  4  S      0.51757     0.47588
             34  H  4  S      0.31100     0.35748
             35  H  5  S      0.51425     0.47713
             36  H  5  S      0.30984     0.35701
             37  H  6  S      0.49874     0.46717
             38  H  6  S      0.34710     0.36211

          ----- MULLIKEN ATOMIC OVERLAP POPULATIONS -----
          (OFF-DIAGONAL ELEMENTS NEED TO BE MULTIPLIED BY 2)

             1           2           3           4           5

    1    5.2787267
    2    0.3404044   5.4862182
    3   -0.0372381   0.3768397   0.5262503
    4   -0.0374347   0.3767137  -0.0371896   0.5182184
    5    0.3668148  -0.0485591  -0.0006111   0.0029334   0.5667900
    6    0.3694841  -0.1345235  -0.0043937   0.0053325  -0.0632850

             6

    6    0.6732211

          TOTAL MULLIKEN AND LOWDIN ATOMIC POPULATIONS
       ATOM         MULL.POP.    CHARGE          LOW.POP.     CHARGE
    1 C             6.280757   -0.280757         6.269991   -0.269991
    2 C             6.397093   -0.397093         6.404871   -0.404871
    3 H             0.823657    0.176343         0.828362    0.171638
    4 H             0.828574    0.171426         0.833356    0.166644
    5 H             0.824083    0.175917         0.834139    0.165861
    6 H             0.845836    0.154164         0.829281    0.170719

          -------------------------------
          BOND ORDER AND VALENCE ANALYSIS     BOND ORDER THRESHOLD=0.050
          -------------------------------

                   BOND                       BOND                       BOND
  ATOM PAIR DIST  ORDER      ATOM PAIR DIST  ORDER      ATOM PAIR DIST  ORDER
    1   2  1.378  1.111        1   5  1.093  0.925        1   6  1.150  0.910
    2   3  1.109  0.921        2   4  1.088  0.935

                       TOTAL       BONDED        FREE
      ATOM            VALENCE     VALENCE     VALENCE
    1 C                 3.802       2.975       0.826
    2 C                 3.787       2.993       0.794
    3 H                 0.932       0.931       0.001
    4 H                 0.936       0.935       0.000
    5 H                 0.919       0.918       0.002
    6 H                 0.914       0.911       0.003

          -----------------------------------------
          ATOMIC SPIN DENSITY AT THE NUCLEUS (A.U.)
          -----------------------------------------
                            SPIN DENS    ALPHA DENS     BETA DENS
    1  C            6.0     0.4333288      59.17200      58.73867
    2  C            6.0     0.0259075      58.93464      58.90874
    3  H            1.0     0.0195701       0.20968       0.19011
    4  H            1.0     0.0109871       0.21221       0.20122
    5  H            1.0     0.0284422       0.21996       0.19152
    6  H            1.0     0.0339872       0.21423       0.18025

          ---------------------
          ELECTROSTATIC MOMENTS
          ---------------------

 POINT   1           X           Y           Z (BOHR)    CHARGE
                -1.293790   -0.386154    0.170664       -0.00 (A.U.)
         DX          DY          DZ         /D/  (DEBYE)
    -0.075153   -0.709747    0.323163    0.783469
 ...... END OF PROPERTY EVALUATION ......
 STEP CPU TIME =     0.00 TOTAL CPU TIME =          6.2 (      0.1 MIN)
 TOTAL WALL CLOCK TIME=          6.4 SECONDS, CPU UTILIZATION IS    97.04%

 -----------------------------------------------------------------------
                    SFDFT CALCULATION FOR SCFTYP=ROHF
                          CODED BY NORIYUKI MINEZAWA
 -----------------------------------------------------------------------
  
 -TDDFT RUNTIME PARAMETERS-
    TRIPLET  = F
    NONEQ    = T
    NSTATE   =                    3
    IROOT    =                    2
    NTRIAL   =                    5
    MAXVEC   =                   50
    ILENG    =                  200
    MAXGRD   =                28848
    NRAD     =                   48
    NLEB     =                  110
 GAS PHASE COMPUTATION
  
 FOR AN EULER-MACLAURIN QUADRATURE USING  48 RADIAL POINTS:
 SMALLEST GAUSSIAN PRIMITIVE EXPONENT=        0.1612777588 OF TYPE -S-
 ON ATOM NUMBER   3 HAS RADIAL NORMALIZATION=  1.000000
  LARGEST GAUSSIAN PRIMITIVE EXPONENT=     3047.5248800000 OF TYPE -S-
 ON ATOM NUMBER   1 HAS RADIAL NORMALIZATION=  1.000000
  

          -----------------------------------------------
          SF-DFT INPUT PARAMETERS (EXTRACTED FROM $TDDFT)
          -----------------------------------------------

     NSTATE=       3  IROOT=       2 MAXVEC=      50
     NTRIAL=       5 CNVTOL=  1.00E-07

     ********** NOTE: THE CURRENT STATUS OF SFDFT **********

     (1) UHF AND ROHF REFERENCES ARE AVAILABLE.
     (2) COLLINEAR APPROXIMATION FOR XC FUNCTIONALS.
     (3) NEITHER LC NOR CAMB3LYP IS SUPPORTED.
     (4) INCORRECT ANALYTIC GRADIENT FOR META-GGA.
     (5) SOLVENT MODELS (EFP1 AND/OR C-PCM) ARE AVAILABLE.

     *******************************************************

 MEMORY REQUIRED FOR SFDFT   ITERATIONS IS    193756 WORDS.


 STATE      ITERATION      ENERGY         RESIDUE NORM
   1            1      -78.3464310237     0.05373471
   2            1      -78.3403798981     0.05440174
   3            1      -78.3188100184     0.11900512

 STATE      ITERATION      ENERGY         RESIDUE NORM
   1            2      -78.3488643630     0.00806665
   2            2      -78.3448578645     0.01985122
   3            2      -78.3413737458     0.01742662

 STATE      ITERATION      ENERGY         RESIDUE NORM
   1            3      -78.3489320538     0.00113970
   2            3      -78.3452265813     0.00205886
   3            3      -78.3416243140     0.00176276

 STATE      ITERATION      ENERGY         RESIDUE NORM
   1            4      -78.3489337939     0.00021075
   2            4      -78.3452319693     0.00033957
   3            4      -78.3416280243     0.00024614

 STATE      ITERATION      ENERGY         RESIDUE NORM
   1            5      -78.3489338419     0.00003612
   2            5      -78.3452321054     0.00006250
   3            5      -78.3416280980     0.00004165

 STATE      ITERATION      ENERGY         RESIDUE NORM
   1            6      -78.3489338435     0.00000554
   2            6      -78.3452321109     0.00001019
   3            6      -78.3416281002     0.00000667

 STATE      ITERATION      ENERGY         RESIDUE NORM
   1            7      -78.3489338435     0.00000075
   2            7      -78.3452321110     0.00000123
   3            7      -78.3416281003     0.00000087

 STATE      ITERATION      ENERGY         RESIDUE NORM
   1            8      -78.3489338435     0.00000011
   2            8      -78.3452321110     0.00000014
   3            8      -78.3416281003     0.00000010

 STATE      ITERATION      ENERGY         RESIDUE NORM
   1            9      -78.3489338435     0.00000002
   2            9      -78.3452321110     0.00000002
   3            9      -78.3416281003     0.00000001
  
   -----------------------------------  
     SPIN-FLIP CALCULATION CONVERGED
   -----------------------------------  
 NUMBER OF USED VECTORS / MAX =  29 / 150
 NUMBER OF ITERATIONS   / MAX =   9 / 100
 NUMBER OF SINGLE EXCITATIONS =   279
 NUMBER OF ATOMIC ORBITALS    =  38

     -----------------------------------
     ALPHA -> BETA SPIN-FLIP EXCITATIONS
     -----------------------------------

 STATE #   1  ENERGY =    0.661038 EV
 SYMMETRY OF STATE   =    A   
 S-SQUARED           =    1.2244
        DRF    COEF       OCC(A)    VIR(B)
        ---    ----       ------    ------
          8 -0.158247         8  ->     8
          9  0.275773         9  ->     8
         18 -0.943968         9  ->     9

 STATE #   2  ENERGY =    0.761767 EV
 SYMMETRY OF STATE   =    A   
 S-SQUARED           =    0.5918
        DRF    COEF       OCC(A)    VIR(B)
        ---    ----       ------    ------
          6 -0.135968         6  ->     8
          7  0.120284         7  ->     8
          8 -0.601451         8  ->     8
          9 -0.757142         9  ->     8
         18 -0.136465         9  ->     9
         54 -0.057848         9  ->    13
         90  0.071962         9  ->    17

 STATE #   3  ENERGY =    0.859838 EV
 SYMMETRY OF STATE   =    A   
 S-SQUARED           =    0.2662
        DRF    COEF       OCC(A)    VIR(B)
        ---    ----       ------    ------
          6  0.081720         6  ->     8
          7 -0.109841         7  ->     8
          8 -0.780636         8  ->     8
          9  0.524499         9  ->     8
         18  0.294888         9  ->     9
         90 -0.051545         9  ->    17

          ----------------------------
          SUMMARY OF SPIN-FLIP RESULTS
          ----------------------------

   STATE             ENERGY     EXCITATION     S-SQUARED

 0 NEGATIVE ROOT(S) FOUND.
   0  A          -78.3732265510    0.000               (REFERENCE STATE)
   1  A          -78.3489338435    0.661        1.2244
   2  A          -78.3452321110    0.762        0.5918
   3  A          -78.3416281003    0.860        0.2662
  
 SELECTING EXCITED STATE IROOT=   2 AT E=      -78.3452321110
 AS THE STATE OF INTEREST.

 ..... DONE WITH SFDFT   EXCITATION ENERGIES .....
 STEP CPU TIME =     0.07 TOTAL CPU TIME =          6.3 (      0.1 MIN)
 TOTAL WALL CLOCK TIME=          6.5 SECONDS, CPU UTILIZATION IS    97.04%

 -----------------------------------------------------------------------
                   SF-DFT ENERGY GRADIENT CALCULATION
 -----------------------------------------------------------------------

    -------------------------
       START Z-VECTOR LOOP
    -------------------------
 INITIAL ERROR =    2.241E-01 / 1.000E-10
 ITER# 1 ERROR =    7.991E-03 / 1.000E-10
 ITER# 2 ERROR =    6.783E-04 / 1.000E-10
 ITER# 3 ERROR =    4.704E-05 / 1.000E-10
 ITER# 4 ERROR =    3.476E-06 / 1.000E-10
 ITER# 5 ERROR =    5.537E-07 / 1.000E-10
 ITER# 6 ERROR =    1.102E-07 / 1.000E-10
 ITER# 7 ERROR =    6.343E-09 / 1.000E-10
 ITER# 8 ERROR =    2.546E-10 / 1.000E-10
 ITER# 9 ERROR =    2.373E-11 / 1.000E-10
    -------------------------
        Z-VECTOR CONVERGED          
    -------------------------
 ..... DONE WITH SF-DFT EXCITED STATE RESPONSE AND DENSITY MATRIX .....
 STEP CPU TIME =     5.27 TOTAL CPU TIME =         11.6 (      0.2 MIN)
 TOTAL WALL CLOCK TIME=         11.8 SECONDS, CPU UTILIZATION IS    98.31%

     ------------------------------------------
     PROPERTIES FOR THE BHHLYP   DFT FUNCTIONAL
      USING THE RELAXED DENSITY OF EXCITED STATE    2
     ------------------------------------------

          -----------------
          ENERGY COMPONENTS
          -----------------

         WAVEFUNCTION NORMALIZATION =       1.0000000000

                ONE ELECTRON ENERGY =    -169.0740095857
                TWO ELECTRON ENERGY =      57.7961764530
           NUCLEAR REPULSION ENERGY =      32.9326010217
                                      ------------------
                       TOTAL ENERGY =     -78.3452321110

 ELECTRON-ELECTRON POTENTIAL ENERGY =      57.7961764530
  NUCLEUS-ELECTRON POTENTIAL ENERGY =    -246.9156483231
   NUCLEUS-NUCLEUS POTENTIAL ENERGY =      32.9326010217
                                      ------------------
             TOTAL POTENTIAL ENERGY =    -156.1868708484
               TOTAL KINETIC ENERGY =      77.8416387375
                 VIRIAL RATIO (V/T) =       2.0064694601

          ---------------------------------------
          MULLIKEN AND LOWDIN POPULATION ANALYSES
          ---------------------------------------

     ATOMIC MULLIKEN POPULATION IN EACH MOLECULAR ORBITAL

                      1          2          3          4          5

                  2.000000   2.000000   2.000000   2.000000   2.000000

    1             1.997291   0.000994   0.934075   0.513137   0.507796
    2             0.001581   1.998126   0.802552   0.771193   0.806452
    3            -0.000006   0.000377   0.041621   0.185747   0.459246
    4             0.000020   0.000431   0.046869   0.247235   0.019977
    5             0.000593   0.000010   0.064491   0.195271   0.205557
    6             0.000521   0.000062   0.110392   0.087417   0.000972

                      6          7          8          9

                  2.000000   2.000000   1.000000   1.000000

    1             0.665206   0.722934   0.908329   0.030996
    2             0.480568   0.628696   0.016905   0.891021
    3             0.076481   0.023107   0.036764   0.000320
    4             0.228804   0.267539   0.017090   0.000609
    5             0.316089   0.000210   0.015643   0.026219
    6             0.232853   0.357515   0.005269   0.050836

     ATOMIC SPIN POPULATION (ALPHA MINUS BETA)
       ATOM         MULL.POP.                    LOW.POP.
    1 C            -0.329669                    -0.315961
    2 C             0.384421                     0.356734
    3 H            -0.017676                    -0.015219
    4 H            -0.003669                    -0.004401
    5 H            -0.042686                    -0.040042
    6 H             0.009279                     0.018889

               ----- POPULATIONS IN EACH AO -----
                             MULLIKEN      LOWDIN
              1  C  1  S      1.99402     1.98085
              2  C  1  S      0.69156     0.38357
              3  C  1  X      0.68215     0.61426
              4  C  1  Y      0.68115     0.62954
              5  C  1  Z      0.61093     0.56111
              6  C  1  S      0.72892     0.39884
              7  C  1  X      0.18708     0.37828
              8  C  1  Y      0.45914     0.56967
              9  C  1  Z      0.41096     0.51306
             10  C  1 XX      0.00708     0.18442
             11  C  1 YY      0.00315     0.15143
             12  C  1 ZZ      0.00137     0.15704
             13  C  1 XY      0.00542     0.01025
             14  C  1 XZ      0.00932     0.01658
             15  C  1 YZ      0.00188     0.00303
             16  C  2  S      1.99395     1.98108
             17  C  2  S      0.72849     0.38901
             18  C  2  X      0.76894     0.68130
             19  C  2  Y      0.58951     0.52922
             20  C  2  Z      0.54642     0.49229
             21  C  2  S      0.64146     0.34607
             22  C  2  X      0.25813     0.38089
             23  C  2  Y      0.32017     0.40712
             24  C  2  Z      0.36325     0.41650
             25  C  2 XX      0.01236     0.18713
             26  C  2 YY     -0.00486     0.14541
             27  C  2 ZZ     -0.00931     0.13862
             28  C  2 XY      0.01646     0.03044
             29  C  2 XZ      0.01395     0.02543
             30  C  2 YZ      0.00504     0.00760
             31  H  3  S      0.52218     0.48503
             32  H  3  S      0.30773     0.36756
             33  H  4  S      0.52830     0.48636
             34  H  4  S      0.27829     0.34335
             35  H  5  S      0.49419     0.45243
             36  H  5  S      0.31286     0.35175
             37  H  6  S      0.49255     0.45368
             38  H  6  S      0.34581     0.34980

          ----- MULLIKEN ATOMIC OVERLAP POPULATIONS -----
          (OFF-DIAGONAL ELEMENTS NEED TO BE MULTIPLIED BY 2)

             1           2           3           4           5

    1    5.4246051
    2    0.4781419   5.1880026
    3   -0.0633941   0.3473960   0.6319390
    4   -0.0410490   0.3506308  -0.0685219   0.5528479
    5    0.3786601  -0.0573848  -0.0009781   0.0032333   0.5181044
    6    0.2971525  -0.0628058  -0.0165295   0.0094486  -0.0345933

             6

    6    0.6456876

          TOTAL MULLIKEN AND LOWDIN ATOMIC POPULATIONS
       ATOM         MULL.POP.    CHARGE          LOW.POP.     CHARGE
    1 C             6.474116   -0.474116         6.551939   -0.551939
    2 C             6.243981   -0.243981         6.158099   -0.158099
    3 H             0.829911    0.170089         0.852592    0.147408
    4 H             0.806590    0.193410         0.829707    0.170293
    5 H             0.807042    0.192958         0.804181    0.195819
    6 H             0.838360    0.161640         0.803483    0.196517

          -------------------------------
          BOND ORDER AND VALENCE ANALYSIS     BOND ORDER THRESHOLD=0.050
          -------------------------------

                   BOND                       BOND                       BOND
  ATOM PAIR DIST  ORDER      ATOM PAIR DIST  ORDER      ATOM PAIR DIST  ORDER
    1   2  1.378  1.577        1   5  1.093  0.906        1   6  1.150  0.821
    2   3  1.109  0.905        2   4  1.088  0.918        2   6  1.740  0.105

                       TOTAL       BONDED        FREE
      ATOM            VALENCE     VALENCE     VALENCE
    1 C                 3.475       3.307       0.168
    2 C                 3.711       3.529       0.182
    3 H                 0.908       0.905       0.003
    4 H                 0.911       0.911      -0.000
    5 H                 0.926       0.925       0.001
    6 H                 0.917       0.917      -0.000

          -----------------------------------------
          ATOMIC SPIN DENSITY AT THE NUCLEUS (A.U.)
          -----------------------------------------
                            SPIN DENS    ALPHA DENS     BETA DENS
    1  C            6.0    -0.1217233      58.96504      59.08676
    2  C            6.0    -0.0238885      59.02524      59.04913
    3  H            1.0    -0.0043173       0.20555       0.20987
    4  H            1.0    -0.0029847       0.21052       0.21350
    5  H            1.0    -0.0264256       0.18302       0.20945
    6  H            1.0     0.0158921       0.20185       0.18595

          ---------------------
          ELECTROSTATIC MOMENTS
          ---------------------

 POINT   1           X           Y           Z (BOHR)    CHARGE
                -1.293790   -0.386154    0.170664       -0.00 (A.U.)
         DX          DY          DZ         /D/  (DEBYE)
    -1.560566   -1.635419    0.928124    2.443640
 ...... END OF PROPERTY EVALUATION ......
 STEP CPU TIME =     0.00 TOTAL CPU TIME =         11.6 (      0.2 MIN)
 TOTAL WALL CLOCK TIME=         11.8 SECONDS, CPU UTILIZATION IS    98.31%

 BEGINNING ONE ELECTRON GRADIENT...
 ..... END OF 1-ELECTRON GRADIENT ......
 STEP CPU TIME =     0.00 TOTAL CPU TIME =         11.6 (      0.2 MIN)
 TOTAL WALL CLOCK TIME=         11.8 SECONDS, CPU UTILIZATION IS    98.31%

          ----------------------
          GRADIENT OF THE ENERGY
          ----------------------
 MEMORY FOR GRID POINT CONTRIBUTIONS TO THE SF-DFT GRADIENT=   2869091 WORDS.
 STEP CPU TIME =     5.36 TOTAL CPU TIME =         16.9 (      0.3 MIN)
 TOTAL WALL CLOCK TIME=         17.2 SECONDS, CPU UTILIZATION IS    98.75%

 THE MINIMUM MEMORY REQUIRED FOR THIS RUN IS      84843 WORDS.
 USING    1060363 WORDS FOR 2E- DERIVATIVE INTEGRAL CONTRIBUTIONS.
 THE COARSE/FINE SCHWARZ SCREENINGS SKIPPED           11/          74 BLOCKS.
 THE NUMBER OF GRADIENT INTEGRAL BLOCKS COMPUTED WAS      9097
 ...... END OF 2-ELECTRON GRADIENT ......
 STEP CPU TIME =     0.07 TOTAL CPU TIME =         17.0 (      0.3 MIN)
 TOTAL WALL CLOCK TIME=         17.2 SECONDS, CPU UTILIZATION IS    98.75%

 BEGINNING GEOMETRY SEARCH POINT NSERCH=   0 ...

 COORDINATES OF ALL ATOMS ARE (ANGS)
   ATOM   CHARGE       X              Y              Z
 ------------------------------------------------------------
 C           6.0   0.0000000000   0.0000000000   0.0000000000
 C           6.0  -1.3372387600  -0.3009393500   0.1376426400
 H           1.0  -1.7839196800  -1.1103863400   0.7503635900
 H           1.0  -2.0950874600   0.1495375000  -0.4993320400
 H           1.0   0.6106704600  -0.0353983800   0.9058301500
 H           1.0   0.1481550100  -1.1040664200  -0.2838613700

          ********************
          1 ELECTRON INTEGRALS
          ********************
 ...... END OF ONE-ELECTRON INTEGRALS ......
 STEP CPU TIME =     0.00 TOTAL CPU TIME =         17.0 (      0.3 MIN)
 TOTAL WALL CLOCK TIME=         17.2 SECONDS, CPU UTILIZATION IS    98.75%

          --------------------
          2 ELECTRON INTEGRALS
          --------------------

 THE -PK- OPTION IS OFF, THE INTEGRALS ARE NOT IN SUPERMATRIX FORM.
 STORING   15000 INTEGRALS/RECORD ON DISK, USING 12 BYTES/INTEGRAL.
 TWO ELECTRON INTEGRAL EVALUATION REQUIRES   90532 WORDS OF MEMORY.
 SCHWARZ INEQUALITY OVERHEAD:       741 INTEGRALS, T=        0.00
 II,JST,KST,LST =  1  1  1  1 NREC =         1 INTLOC =    1
 II,JST,KST,LST =  2  1  1  1 NREC =         1 INTLOC =    2
 II,JST,KST,LST =  3  1  1  1 NREC =         1 INTLOC =   34
 II,JST,KST,LST =  4  1  1  1 NREC =         1 INTLOC =  214
 II,JST,KST,LST =  5  1  1  1 NREC =         1 INTLOC = 1189
 II,JST,KST,LST =  6  1  1  1 NREC =         1 INTLOC = 3244
 II,JST,KST,LST =  7  1  1  1 NREC =         2 INTLOC =  996
 II,JST,KST,LST =  8  1  1  1 NREC =         3 INTLOC = 8255
 II,JST,KST,LST =  9  1  1  1 NREC =         7 INTLOC = 6199
 II,JST,KST,LST = 10  1  1  1 NREC =         8 INTLOC = 6107
 II,JST,KST,LST = 11  1  1  1 NREC =         9 INTLOC = 7507
 II,JST,KST,LST = 12  1  1  1 NREC =        10 INTLOC =10489
 II,JST,KST,LST = 13  1  1  1 NREC =        12 INTLOC =  157
 II,JST,KST,LST = 14  1  1  1 NREC =        13 INTLOC = 6604
 II,JST,KST,LST = 15  1  1  1 NREC =        14 INTLOC =14950
 II,JST,KST,LST = 16  1  1  1 NREC =        16 INTLOC =10294
 SCHWARZ INEQUALITY TEST SKIPPED          11 INTEGRAL BLOCKS.
 TOTAL NUMBER OF NONZERO TWO-ELECTRON INTEGRALS =              262748
         18 INTEGRAL RECORDS WERE STORED ON DISK FILE  8.
  ...... END OF TWO-ELECTRON INTEGRALS .....
 STEP CPU TIME =     0.02 TOTAL CPU TIME =         17.0 (      0.3 MIN)
 TOTAL WALL CLOCK TIME=         17.3 SECONDS, CPU UTILIZATION IS    98.75%

 -----------------------------------------------------------------------
                    SFDFT CALCULATION FOR SCFTYP=ROHF
                          CODED BY NORIYUKI MINEZAWA
 -----------------------------------------------------------------------
  
 -TDDFT RUNTIME PARAMETERS-
    TRIPLET  = F
    NONEQ    = T
    NSTATE   =                    3
    IROOT    =                    3
    NTRIAL   =                    5
    MAXVEC   =                   50
    ILENG    =                  200
    MAXGRD   =                28848
    NRAD     =                   48
    NLEB     =                  110
 GAS PHASE COMPUTATION
  
 FOR AN EULER-MACLAURIN QUADRATURE USING  48 RADIAL POINTS:
 SMALLEST GAUSSIAN PRIMITIVE EXPONENT=        0.1612777588 OF TYPE -S-
 ON ATOM NUMBER   3 HAS RADIAL NORMALIZATION=  1.000000
  LARGEST GAUSSIAN PRIMITIVE EXPONENT=     3047.5248800000 OF TYPE -S-
 ON ATOM NUMBER   1 HAS RADIAL NORMALIZATION=  1.000000
  

          -----------------------------------------------
          SF-DFT INPUT PARAMETERS (EXTRACTED FROM $TDDFT)
          -----------------------------------------------

     NSTATE=       3  IROOT=       3 MAXVEC=      50
     NTRIAL=       5 CNVTOL=  1.00E-07

     ********** NOTE: THE CURRENT STATUS OF SFDFT **********

     (1) UHF AND ROHF REFERENCES ARE AVAILABLE.
     (2) COLLINEAR APPROXIMATION FOR XC FUNCTIONALS.
     (3) NEITHER LC NOR CAMB3LYP IS SUPPORTED.
     (4) INCORRECT ANALYTIC GRADIENT FOR META-GGA.
     (5) SOLVENT MODELS (EFP1 AND/OR C-PCM) ARE AVAILABLE.

     *******************************************************

 MEMORY REQUIRED FOR SFDFT   ITERATIONS IS    193756 WORDS.


 STATE      ITERATION      ENERGY         RESIDUE NORM
   1            1      -78.3464310237     0.05373471
   2            1      -78.3403798981     0.05440174
   3            1      -78.3188100184     0.11900512

 STATE      ITERATION      ENERGY         RESIDUE NORM
   1            2      -78.3488643630     0.00806665
   2            2      -78.3448578645     0.01985122
   3            2      -78.3413737458     0.01742662

 STATE      ITERATION      ENERGY         RESIDUE NORM
   1            3      -78.3489320538     0.00113970
   2            3      -78.3452265813     0.00205886
   3            3      -78.3416243140     0.00176276

 STATE      ITERATION      ENERGY         RESIDUE NORM
   1            4      -78.3489337939     0.00021075
   2            4      -78.3452319693     0.00033957
   3            4      -78.3416280243     0.00024614

 STATE      ITERATION      ENERGY         RESIDUE NORM
   1            5      -78.3489338419     0.00003612
   2            5      -78.3452321054     0.00006250
   3            5      -78.3416280980     0.00004165

 STATE      ITERATION      ENERGY         RESIDUE NORM
   1            6      -78.3489338435     0.00000554
   2            6      -78.3452321109     0.00001019
   3            6      -78.3416281002     0.00000667

 STATE      ITERATION      ENERGY         RESIDUE NORM
   1            7      -78.3489338435     0.00000075
   2            7      -78.3452321110     0.00000123
   3            7      -78.3416281003     0.00000087

 STATE      ITERATION      ENERGY         RESIDUE NORM
   1            8      -78.3489338435     0.00000011
   2            8      -78.3452321110     0.00000014
   3            8      -78.3416281003     0.00000010

 STATE      ITERATION      ENERGY         RESIDUE NORM
   1            9      -78.3489338435     0.00000002
   2            9      -78.3452321110     0.00000002
   3            9      -78.3416281003     0.00000001
  
   -----------------------------------  
     SPIN-FLIP CALCULATION CONVERGED
   -----------------------------------  
 NUMBER OF USED VECTORS / MAX =  29 / 150
 NUMBER OF ITERATIONS   / MAX =   9 / 100
 NUMBER OF SINGLE EXCITATIONS =   279
 NUMBER OF ATOMIC ORBITALS    =  38

     -----------------------------------
     ALPHA -> BETA SPIN-FLIP EXCITATIONS
     -----------------------------------

 STATE #   1  ENERGY =    0.661038 EV
 SYMMETRY OF STATE   =    A   
 S-SQUARED           =    1.2244
        DRF    COEF       OCC(A)    VIR(B)
        ---    ----       ------    ------
          8 -0.158247         8  ->     8
          9  0.275773         9  ->     8
         18 -0.943968         9  ->     9

 STATE #   2  ENERGY =    0.761767 EV
 SYMMETRY OF STATE   =    A   
 S-SQUARED           =    0.5918
        DRF    COEF       OCC(A)    VIR(B)
        ---    ----       ------    ------
          6 -0.135968         6  ->     8
          7  0.120284         7  ->     8
          8 -0.601451         8  ->     8
          9 -0.757142         9  ->     8
         18 -0.136465         9  ->     9
         54 -0.057848         9  ->    13
         90  0.071962         9  ->    17

[...]
                     A          A          A          A          A   
    1  C  1  S    0.994000  -0.012997   0.155237   0.103644   0.023399
    2  C  1  S    0.040905  -0.000577  -0.298814  -0.202149  -0.057700
    3  C  1  X   -0.000433   0.000451   0.103448  -0.127433   0.261112
    4  C  1  Y   -0.000857   0.000076   0.086341   0.075853  -0.035361
    5  C  1  Z    0.000488  -0.000064  -0.047082  -0.078819   0.139921
    6  C  1  S   -0.015694   0.002428  -0.244188  -0.237659  -0.020070
    7  C  1  X    0.001642  -0.001608   0.012980  -0.036632   0.080931
    8  C  1  Y    0.002624   0.000221   0.033424   0.042538  -0.017205
    9  C  1  Z   -0.001800   0.000003  -0.021630  -0.037453   0.056204
   10  C  1 XX   -0.006111  -0.000318  -0.006605   0.011904  -0.013259
   11  C  1 YY   -0.006440  -0.000034  -0.000242  -0.005916   0.005148
   12  C  1 ZZ   -0.006392   0.000050   0.006034  -0.005817   0.014265
   13  C  1 XY    0.000026  -0.000091  -0.003813   0.005809  -0.001511
   14  C  1 XZ    0.000060   0.000042  -0.003084  -0.010098   0.004077
   15  C  1 YZ    0.000020   0.000034  -0.000963  -0.000918  -0.005280
   16  C  2  S    0.012633   0.993765   0.148265  -0.130915   0.004494
   17  C  2  S    0.000310   0.040822  -0.281667   0.255700  -0.012014
   18  C  2  X   -0.000240   0.000342  -0.108428  -0.188171  -0.184291
   19  C  2  Y   -0.000081  -0.000098  -0.009355  -0.019272  -0.269221
   20  C  2  Z   -0.000028  -0.000118   0.010625  -0.012287   0.244226
   21  C  2  S    0.005032  -0.011695  -0.213495   0.294669  -0.017534
   22  C  2  X    0.002580  -0.000484  -0.010316  -0.051623  -0.064802
   23  C  2  Y    0.000184  -0.000064   0.005956  -0.014308  -0.116362
   24  C  2  Z    0.000475   0.000334   0.000156   0.000603   0.105407
   25  C  2 XX   -0.000420  -0.006231  -0.013908  -0.005501  -0.009029
   26  C  2 YY   -0.000217  -0.006736   0.005973   0.003305   0.012988
   27  C  2 ZZ   -0.000178  -0.006733   0.008235   0.002860   0.005397
   28  C  2 XY   -0.000077   0.000096  -0.002449  -0.000178   0.006067
   29  C  2 XZ    0.000135  -0.000010   0.000747   0.004299  -0.003402
   30  C  2 YZ   -0.000006  -0.000168   0.008669  -0.016905  -0.009437
   31  H  3  S   -0.000175  -0.000254  -0.073819   0.149806   0.244746
   32  H  3  S   -0.000262   0.002062  -0.010121   0.070557   0.196321
   33  H  4  S   -0.000072  -0.000227  -0.071299   0.167699  -0.077149
   34  H  4  S    0.000601   0.002211  -0.016235   0.079719  -0.052423
   35  H  5  S    0.000146  -0.000031  -0.092400  -0.149238   0.129564
   36  H  5  S    0.003040   0.000344  -0.013315  -0.067517   0.106143
   37  H  6  S    0.000207   0.000030  -0.111068  -0.111876   0.018603
   38  H  6  S    0.002853   0.000797  -0.020390  -0.049899   0.022950

                      6          7          8          9         10
                   -0.4673    -0.4339    -0.1840    -0.0929     0.1565
                     A          A          A          A          A   
    1  C  1  S   -0.023005  -0.002500  -0.093083   0.000175   0.092082
    2  C  1  S    0.043818   0.016529   0.212774   0.008989  -0.075763
    3  C  1  X    0.149869  -0.281452   0.137936  -0.033148  -0.163415
    4  C  1  Y    0.244692   0.189680   0.366263   0.088294   0.190273
    5  C  1  Z    0.241804   0.168036  -0.371448   0.070298  -0.010320
    6  C  1  S    0.079987  -0.032405   0.341435  -0.059690  -1.803399
    7  C  1  X    0.049875  -0.110943   0.115692  -0.017606  -0.288280
    8  C  1  Y    0.098545   0.105716   0.284583   0.103441   0.735371
    9  C  1  Z    0.107706   0.071572  -0.280763   0.064016  -0.201794
   10  C  1 XX    0.002943   0.014613  -0.010610   0.004152   0.002540
   11  C  1 YY   -0.026336  -0.025102  -0.005319  -0.010551   0.009458
   12  C  1 ZZ    0.021073   0.004111  -0.002159   0.005664   0.011556
   13  C  1 XY   -0.008980   0.012797   0.000552   0.021931  -0.008028
   14  C  1 XZ    0.015917  -0.012327  -0.004855   0.023613  -0.000842
   15  C  1 YZ   -0.005884  -0.008681  -0.002233  -0.003125   0.002471
   16  C  2  S    0.001021  -0.028139   0.022008  -0.004022   0.063076
   17  C  2  S    0.001187   0.061417  -0.049398   0.005805  -0.124537
   18  C  2  X   -0.175052   0.285760  -0.061215   0.100645   0.057213
   19  C  2  Y    0.194618  -0.010728  -0.062319  -0.398872   0.095865
   20  C  2  Z   -0.065514   0.205844   0.053938  -0.421686  -0.070554
   21  C  2  S   -0.007471   0.085925  -0.012529   0.057051  -0.624811
   22  C  2  X   -0.079855   0.138116   0.001249   0.109873   0.539843
   23  C  2  Y    0.095813  -0.019515  -0.032033  -0.391662   0.236540
   24  C  2  Z   -0.038048   0.111102   0.036789  -0.406822  -0.139884
   25  C  2 XX    0.002347  -0.003605  -0.005756  -0.003457  -0.010052
   26  C  2 YY   -0.001163  -0.000550   0.008330   0.000503   0.011014
   27  C  2 ZZ    0.004048  -0.007154   0.003658   0.000338   0.002921
   28  C  2 XY    0.000616   0.020707   0.018242   0.007175   0.003217
   29  C  2 XZ    0.020130  -0.006765  -0.016815   0.002711  -0.000841
   30  C  2 YZ   -0.001112   0.000407  -0.007501   0.001137   0.003655
   31  H  3  S   -0.075524   0.055505   0.102886   0.011179   0.008357
   32  H  3  S   -0.059212   0.045283   0.153312   0.006794   0.918605
   33  H  4  S    0.158380  -0.189616  -0.076326  -0.008265  -0.015625
   34  H  4  S    0.129737  -0.164736  -0.094161  -0.018998   0.384712
   35  H  5  S    0.217620  -0.002862  -0.083108   0.099524   0.003003
   36  H  5  S    0.206238   0.005553  -0.086552   0.176924   0.928158
   37  H  6  S   -0.164178  -0.202304  -0.054009  -0.129086   0.063583
   38  H  6  S   -0.157198  -0.217518  -0.044646  -0.242913   1.394681

                     11         12         13         14         15
                    0.1955     0.2032     0.2474     0.3620     0.5560
                     A          A          A          A          A   
    1  C  1  S    0.077168   0.022432  -0.048271  -0.076624   0.012833
    2  C  1  S   -0.068302  -0.021203   0.046294   0.017803   0.155131
    3  C  1  X   -0.007454  -0.059470  -0.002203  -0.212179  -0.613484
    4  C  1  Y    0.079804  -0.233939  -0.007144   0.039751   0.087125
    5  C  1  Z   -0.082046  -0.301585   0.092028  -0.102740   0.083340
    6  C  1  S   -1.286585  -0.464831   1.128693   2.605955   0.473489
    7  C  1  X    0.135501  -0.132642  -0.057522  -2.346531   0.657589
    8  C  1  Y    0.350070  -0.679933  -0.468523  -0.323152  -0.093614
    9  C  1  Z   -0.272712  -0.897822   0.724245  -0.047344   0.037235
   10  C  1 XX    0.013043   0.010588   0.007687  -0.021025   0.075104
   11  C  1 YY    0.001277  -0.007579  -0.004167   0.010338  -0.029230
   12  C  1 ZZ    0.005672   0.003522  -0.005279   0.006251  -0.020282
   13  C  1 XY   -0.001628   0.000685  -0.015971   0.001942   0.017879
   14  C  1 XZ    0.000797   0.011177   0.017551   0.003497  -0.020161
   15  C  1 YZ    0.010331  -0.002564   0.004096   0.010843  -0.003366
   16  C  2  S   -0.122611   0.006294   0.015950   0.072559   0.027450
   17  C  2  S    0.131716   0.011515   0.018645  -0.074412   0.229344
   18  C  2  X   -0.168074   0.058714  -0.101869  -0.217960   0.503479
   19  C  2  Y    0.012651   0.098540   0.262037  -0.101305   0.098202
   20  C  2  Z   -0.033375  -0.053259  -0.264209   0.052446   0.035569
   21  C  2  S    2.187783  -0.254382  -0.478632  -2.233925  -0.143823
   22  C  2  X   -0.381441   0.190400  -0.760023  -2.339105  -1.336099
   23  C  2  Y    0.046562   0.408324   0.920952  -0.771028  -0.197853
   24  C  2  Z   -0.109470   0.034359  -1.073836   0.479547   0.020892
   25  C  2 XX   -0.013253   0.001027   0.005409   0.003365   0.084434
   26  C  2 YY   -0.004306  -0.012940   0.003618  -0.006435  -0.008303
   27  C  2 ZZ   -0.005033   0.015096  -0.001300  -0.005463  -0.017051
   28  C  2 XY    0.001703  -0.002896   0.008192   0.014147   0.037104
   29  C  2 XZ   -0.004164  -0.016744  -0.002942  -0.016106  -0.009634
   30  C  2 YZ    0.000339  -0.009278   0.001359   0.012881   0.016680
   31  H  3  S   -0.037450   0.037350   0.037065  -0.005928  -0.068418
   32  H  3  S   -1.021716   0.614157   1.522280  -0.914716  -0.242763
   33  H  4  S   -0.063307  -0.014449  -0.015530  -0.065454  -0.077219
   34  H  4  S   -1.507450  -0.062470  -1.659527  -0.240717  -0.201258
   35  H  5  S    0.019664   0.084057   0.034157   0.059452  -0.092546
   36  H  5  S    0.764439   1.486701  -0.840239   0.638734  -0.039094
   37  H  6  S    0.011486  -0.099203   0.027904   0.103085  -0.170280
   38  H  6  S    0.613044  -1.102907  -0.134170  -0.024983   0.352051

                     16         17         18         19
                    0.6264     0.6459     0.6806     0.7361
                     A          A          A          A   
    1  C  1  S    0.003006   0.025580  -0.001386   0.025049
    2  C  1  S   -0.028006  -0.296217   0.093710  -0.207497
    3  C  1  X   -0.119448  -0.124362  -0.089979   0.604302
    4  C  1  Y   -0.503097  -0.709667  -0.217434  -0.146552
    5  C  1  Z   -0.396295   0.589759  -0.236888  -0.169747
    6  C  1  S   -0.037196   0.097492  -0.261628   0.633914
    7  C  1  X    0.415314  -0.024693   0.225253  -0.755146
    8  C  1  Y    0.912812   0.817200   0.557414   0.200702
    9  C  1  Z    0.753069  -0.653768   0.476695   0.204121
   10  C  1 XX   -0.028186  -0.058809  -0.011144   0.091068
   11  C  1 YY    0.084243  -0.014007   0.035469  -0.047836
   12  C  1 ZZ   -0.071737  -0.012878  -0.012935  -0.011813
   13  C  1 XY    0.023630  -0.009750  -0.026828   0.042971
   14  C  1 XZ   -0.023050   0.015027  -0.043570  -0.010713
   15  C  1 YZ    0.026354   0.009164   0.007925   0.003620
   16  C  2  S    0.009518   0.007367   0.007793  -0.076913
   17  C  2  S   -0.081264  -0.124437   0.033522  -0.290062
   18  C  2  X    0.050240  -0.016644  -0.159671   0.517132
   19  C  2  Y   -0.207491  -0.113796   0.694894   0.211202
   20  C  2  Z   -0.438547   0.179423   0.617481   0.061155
   21  C  2  S    0.426590   0.290722   0.158661   0.663207
   22  C  2  X    0.007103  -0.206058   0.397521  -1.210110
   23  C  2  Y   -0.075425   0.228377  -0.987779  -0.444744
   24  C  2  Z    0.324565  -0.328527  -0.786937  -0.054916
   25  C  2 XX    0.041291   0.018088   0.035403  -0.139887
   26  C  2 YY   -0.014534  -0.009347   0.002470  -0.028391
   27  C  2 ZZ   -0.028897  -0.020479  -0.008570  -0.005827
   28  C  2 XY   -0.040460   0.009817   0.007167  -0.047265
   29  C  2 XZ    0.000292  -0.019467   0.022180  -0.008223
   30  C  2 YZ    0.017545   0.010944  -0.008645   0.118499
   31  H  3  S   -0.141733   0.165141   0.009725  -0.527492
   32  H  3  S   -0.018466   0.068483  -0.025884  -0.237402
   33  H  4  S    0.117751  -0.236573   0.129256  -0.446207
   34  H  4  S   -0.066789  -0.273009   0.054642  -0.342452
   35  H  5  S   -0.397995   0.134416  -0.151340   0.046677
   36  H  5  S   -0.128903   0.148101   0.119471  -0.010089
   37  H  6  S    0.320075   0.089381   0.222493  -0.179508
   38  H  6  S    0.079304   0.158022  -0.304463   0.282577

     ------------------------------------------
     PROPERTIES FOR THE BHHLYP   DFT FUNCTIONAL
      USING THE RELAXED DENSITY OF EXCITED STATE    3
     ------------------------------------------

          -----------------
          ENERGY COMPONENTS
          -----------------

         WAVEFUNCTION NORMALIZATION =       1.0000000000

                ONE ELECTRON ENERGY =    -169.0032576127
                TWO ELECTRON ENERGY =      57.7770364706
           NUCLEAR REPULSION ENERGY =      32.8813839025
                                      ------------------
                       TOTAL ENERGY =     -78.3448372396

 ELECTRON-ELECTRON POTENTIAL ENERGY =      57.7770364706
  NUCLEUS-ELECTRON POTENTIAL ENERGY =    -246.8721144820
   NUCLEUS-NUCLEUS POTENTIAL ENERGY =      32.8813839025
                                      ------------------
             TOTAL POTENTIAL ENERGY =    -156.2136941089
               TOTAL KINETIC ENERGY =      77.8688568693
                 VIRIAL RATIO (V/T) =       2.0061125897

          ---------------------------------------
          MULLIKEN AND LOWDIN POPULATION ANALYSES
          ---------------------------------------

     ATOMIC MULLIKEN POPULATION IN EACH MOLECULAR ORBITAL

                      1          2          3          4          5

                  2.000000   2.000000   2.000000   2.000000   2.000000

    1             1.997205   0.000961   0.939105   0.503404   0.441537
    2             0.001627   1.998166   0.792605   0.778569   0.872513
    3            -0.000007   0.000387   0.045041   0.190614   0.490125
    4             0.000019   0.000423   0.047073   0.245087   0.043900
    5             0.000610   0.000011   0.070035   0.182250   0.144588
    6             0.000547   0.000051   0.106141   0.100075   0.007337

                      6          7          8          9

                  2.000000   2.000000   1.000000   1.000000

    1             0.749328   0.716216   0.911064   0.024675
    2             0.408460   0.624503   0.017573   0.897552
    3             0.041566   0.019767   0.034486   0.000189
    4             0.198798   0.278407   0.015650   0.000493
    5             0.386339  -0.000131   0.015728   0.027613
    6             0.215509   0.361238   0.005499   0.049479

     ATOMIC SPIN POPULATION (ALPHA MINUS BETA)
       ATOM         MULL.POP.                    LOW.POP.
    1 C            -0.527874                    -0.503713
    2 C             0.562873                     0.529763
    3 H            -0.024968                    -0.025431
    4 H            -0.008699                    -0.009206
    5 H            -0.026560                    -0.024427
    6 H             0.025229                     0.033014

               ----- POPULATIONS IN EACH AO -----
                             MULLIKEN      LOWDIN
              1  C  1  S      1.99400     1.98054
              2  C  1  S      0.69319     0.38197
              3  C  1  X      0.70025     0.62904
              4  C  1  Y      0.69676     0.64245
              5  C  1  Z      0.56433     0.51263
              6  C  1  S      0.71167     0.38710
              7  C  1  X      0.20354     0.37987
              8  C  1  Y      0.45807     0.55648
              9  C  1  Z      0.35971     0.45675
             10  C  1 XX      0.00593     0.17981
             11  C  1 YY      0.00261     0.14889
             12  C  1 ZZ      0.00346     0.15836
             13  C  1 XY      0.00564     0.01214
             14  C  1 XZ      0.00990     0.01791
             15  C  1 YZ      0.00152     0.00250
             16  C  2  S      1.99378     1.98082
             17  C  2  S      0.70935     0.37997
             18  C  2  X      0.75289     0.66954
             19  C  2  Y      0.62702     0.57165
             20  C  2  Z      0.57403     0.52376
             21  C  2  S      0.62661     0.34529
             22  C  2  X      0.24938     0.38324
             23  C  2  Y      0.32876     0.42438
             24  C  2  Z      0.40388     0.44826
             25  C  2 XX      0.01278     0.18429
             26  C  2 YY     -0.00472     0.14283
             27  C  2 ZZ     -0.00798     0.13693
             28  C  2 XY      0.01491     0.02902
             29  C  2 XZ      0.01120     0.02043
             30  C  2 YZ      0.00515     0.00777
             31  H  3  S      0.51941     0.47897
             32  H  3  S      0.30313     0.35986
             33  H  4  S      0.52398     0.48223
             34  H  4  S      0.29353     0.35044
             35  H  5  S      0.48865     0.44690
             36  H  5  S      0.30935     0.35057
             37  H  6  S      0.50728     0.47911
             38  H  6  S      0.34704     0.35730

          ----- MULLIKEN ATOMIC OVERLAP POPULATIONS -----
          (OFF-DIAGONAL ELEMENTS NEED TO BE MULTIPLIED BY 2)

             1           2           3           4           5

    1    5.3617111
    2    0.4380414   5.2913181
    3   -0.0560464   0.3647965   0.5860513
    4   -0.0378326   0.3572451  -0.0560569   0.5416563
    5    0.3782713  -0.0553227   0.0027737   0.0020889   0.5196632
    6    0.3264418  -0.0990245  -0.0189778   0.0104045  -0.0494806

             6

    6    0.6849566

          TOTAL MULLIKEN AND LOWDIN ATOMIC POPULATIONS
       ATOM         MULL.POP.    CHARGE          LOW.POP.     CHARGE
    1 C             6.410587   -0.410587         6.446439   -0.446439
    2 C             6.297054   -0.297054         6.248186   -0.248186
    3 H             0.822540    0.177460         0.838835    0.161165
    4 H             0.817505    0.182495         0.832671    0.167329
    5 H             0.797994    0.202006         0.797466    0.202534
    6 H             0.854320    0.145680         0.836403    0.163597

          -------------------------------
          BOND ORDER AND VALENCE ANALYSIS     BOND ORDER THRESHOLD=0.050
          -------------------------------

                   BOND                       BOND                       BOND
  ATOM PAIR DIST  ORDER      ATOM PAIR DIST  ORDER      ATOM PAIR DIST  ORDER
    1   2  1.384  1.478        1   5  1.099  0.911        1   6  1.143  0.890
    2   3  1.098  0.914        2   4  1.089  0.927

                       TOTAL       BONDED        FREE
      ATOM            VALENCE     VALENCE     VALENCE
    1 C                 3.647       3.275       0.373
    2 C                 3.779       3.360       0.419
    3 H                 0.914       0.904       0.010
    4 H                 0.922       0.918       0.005
    5 H                 0.923       0.913       0.010
    6 H                 0.909       0.905       0.005

          -----------------------------------------
          ATOMIC SPIN DENSITY AT THE NUCLEUS (A.U.)
          -----------------------------------------
                            SPIN DENS    ALPHA DENS     BETA DENS
    1  C            6.0    -0.2422700      58.88540      59.12767
    2  C            6.0    -0.0214481      58.97778      58.99923
    3  H            1.0    -0.0105236       0.20165       0.21217
    4  H            1.0    -0.0056395       0.20692       0.21256
    5  H            1.0    -0.0177813       0.18463       0.20241
    6  H            1.0     0.0196048       0.21172       0.19211

          ---------------------
          ELECTROSTATIC MOMENTS
          ---------------------

 POINT   1           X           Y           Z (BOHR)    CHARGE
                -1.298008   -0.393808    0.141225       -0.00 (A.U.)
         DX          DY          DZ         /D/  (DEBYE)
    -0.991571   -1.298767    0.792273    1.815959
 ...... END OF PROPERTY EVALUATION ......
 STEP CPU TIME =     0.01 TOTAL CPU TIME =        429.5 (      7.2 MIN)
 TOTAL WALL CLOCK TIME=        436.6 SECONDS, CPU UTILIZATION IS    98.37%
  $VIB   
          IVIB=   0 IATOM=   0 ICOORD=   0 E=      -78.3448372396
  1.164669077E-05 1.316567882E-06 2.027840488E-05 1.885666649E-05-2.845191742E-05
  7.520080838E-06 2.306927784E-06 4.220342313E-06-1.243666328E-05-2.081042680E-05
 -1.638421021E-05 1.510391711E-05 2.045094808E-05 3.558517672E-05-2.159447168E-06
 -3.245080632E-05 3.714040723E-06-2.830629238E-05
 -9.915708850E-01-1.298767487E+00 7.922726180E-01
 ......END OF GEOMETRY SEARCH......
 STEP CPU TIME =     0.00 TOTAL CPU TIME =        429.5 (      7.2 MIN)
 TOTAL WALL CLOCK TIME=        436.6 SECONDS, CPU UTILIZATION IS    98.37%
              2869611  WORDS OF DYNAMIC MEMORY USED
 EXECUTION OF GAMESS TERMINATED NORMALLY 07:07:29 12-MAR-2022    
 DDI: 263640 bytes (0.3 MB / 0 MWords) used by master data server.

 ----------------------------------------
 CPU timing information for all processes
 ========================================
 0: 428.534 + 0.957 = 429.492
 ----------------------------------------
Note: The following floating-point exceptions are signalling: IEEE_UNDERFLOW_FLAG IEEE_DENORMAL
 ddikick.x: exited gracefully.
