
 Distributed Data Interface kickoff program.
 Initiating 1 compute processes on 1 nodes to run the following command:
 /usr/local/gamess/gamess.00.x /home/webmo/webmo/yamnor/88/input 

          *******************************************************
          *                                                     *
          *      GAMESS VERSION = 30 SEP 2021 (R2 Patch 1)      *
          *                                                     *
          *              doi.org/10.1063/5.0005188              *
          *                                                     *
          **************** 64 BIT LINUX VERSION *****************

  GAMESS HAS BEEN MADE POSSIBLE WITH IMPORTANT CONTRIBUTIONS FROM
  THE FOLLOWING INDIVIDUALS (IN ALPHABETICAL ORDER):

     IVANA ADAMOVIC, CHRISTINE AIKENS, TOMOKO AKAMA,
     YURI ALEXEEV, YURIKO AOKI, POOJA ARORA, TOSHIO ASADA,
     ANDREY ASADCHEV, KIM K. BALDRIDGE, PRADIPTA BANDYOPADHYAY,
     TAYLOR A. BARNES, MARIA BARYSZ, ROB BELL,
     JONATHAN BENTZ, COLLEEN BERTONI,
     JERRY A. BOATZ, BRETT BODE, KURT BRORSEN, KURT R. BRORSEN,
     LAIMUTIS BYTAUTAS, CALEB CARLIN, LAURA CARRINGTON,
     GALINA CHABAN, BENOIT CHAMPAGNE, WEI CHEN, MAHITO CHIBA,
     DAN CHIPMAN, CHEOL HO CHOI, TANNER CULPITT,
     DIPAYAN DATTA, PAUL DAY, ALBERT DEFUSCO,
     NUWAN DESILVA, J. EMILIANO DEUSTUA,
     TIM DUDLEY, MICHEL DUPUIS, STEVEN T. ELBERT,
     DMITRI FEDOROV, ALEX FINDLATER, GRAHAM FLETCHER,
     MARK FREITAG, CHRISTIAN FRIEDL, DAVID GARMER,
     IGOR S. GERASIMOV, KURT GLAESEMANN, MARK S. GORDON,
     JEFFREY GOUR, FENG LONG GU, EMILIE B. GUIDEZ,
     ANASTASIA GUNINA, SHARON HAMMES-SCHIFFER, MASATAKE HARUTA,
     KIMIHIKO HIRAO, YASUHIRO IKABATA, TZVETELIN IORDANOV,
     STEPHAN IRLE, KAZUYA ISHIMURA, JOE IVANIC, FRANK JENSEN,
     JAN H. JENSEN, VISVALDAS KAIRYS, MUNEAKI KAMIYA,
     MICHIO KATOUDA, NAOAKI KAWAKAMI, DAN KEMP, BERNARD KIRTMAN,
     KAZUO KITAURA, MARIUSZ KLOBUKOWSKI, MASATO KOBAYASHI,
     PRAKASHAN KORAMBATH, JACEK KORCHOWIEC, SHIRO KOSEKI,
     KAROL KOWALSKI, JIMMY KROMANN, STANISLAW KUCHARSKI,
     HENRY KURTZ, SAROM SOK LEANG, HUI LI, SHUHUA LI, WEI LI,
     JESSE LUTZ, ALEKSANDR O. LYKHIN, MARCIN MAKOWSKI,
     JOANI MATO, NIKITA MATSUNAGA, BENEDETTA MENNUCCI,
     GRANT MERRILL, NORIYUKI MINEZAWA, VLADIMIR MIRONOV,
     EISAKU MIYOSHI, JOHN A. MONTGOMERY JR., HIROTOSHI MORI,
     JONATHAN MULLIN, MONIKA MUSIAL, SHIGERU NAGASE,
     TAKESHI NAGATA, HIROMI NAKAI, TAKAHITO NAKAJIMA,
     YUYA NAKAJIMA, HARUYUKI NAKANO, HIROYA NAKATA, SEAN NEDD,
     HEATHER NETZLOFF, KIET A. NGUYEN, YOSHIO NISHIMOTO,
     BOSILJKA NJEGIC, RYAN OLSON, MIKE PAK, ROBERTO PEVERATI,
     BUU PHAM, PIOTR PIECUCH, ANNA POMOGAEVA, DAVID POOLE,
     SPENCER PRUITT, OLIVIER QUINET, LUKE ROSKOP,
     KLAUS RUEDENBERG, ANDREW SAND, TOSAPORN SATTASATHUCHANA,
     NOZOMI SAWADA, MICHAEL W. SCHMIDT, PATRICK E. SCHNEIDER,
     JUNJI SEINO, PRACHI SHARMA, JUN SHEN, JIM SHOEMAKER,
     YINAN SHU, DEJUN SI, JONATHAN SKONE, LYUDMILA SLIPCHENKO,
     TONY SMITH, JIE SONG, MARK SPACKMAN, CASPER STEINMANN,
     WALT STEVENS, PEIFENG SU, SHUJUN SU, CHET SWALINA,
     TETSUYA TAKETSUGU, ZHEN TAO, NANDUN THELLAMUREGE
     SEIKEN TOKURA, JACOPO TOMASI, TSUGUKI TOUMA, TAKAO TSUNEDA,
     HIROAKI UMEDA, JORGE LUIS GALVEZ VALLEJO, YALI WANG,
     SIMON WEBB, AARON WEST, THERESA L. WINDUS, MARTA WLOCH,
     PENG XU, KIYOSHI YAGI, SUSUMU YANAGISAWA, YANG YANG,
     SOOHAENG YOO, TAKESHI YOSHIKAWA, FEDERICO ZAHARIEV,
     TOBY ZENG

  WHO ARE SUPPORTED BY THEIR INSTITUTION/UNIVERSITY/COMPANY/GROUP
  (IN ALPHABETICAL ORDER):

     EP ANALYTICS, FACULTES UNIVERSITAIRES NOTRE-DAME DE LA PAIX,
     INSTITUTE FOR MOLECULAR SCIENCE, IOWA STATE UNIVERSITY,
     JACKSON STATE UNIVERSITY, JOHANNES KEPLER UNIVERSITY LINZ,
     KYUSHU UNIVERSITY, MICHIGAN STATE UNIVERSITY,
     MIE UNIVERSITY, THE MOLECULAR SCIENCES SOFTWARE INSTITUTE,
     MOSCOW STATE UNIVERSITY,
     N. COPERNICUS UNIVERSITY, NAGOYA UNIVERSITY,
     NANJING UNIVERSITY, NAT. INST. OF ADVANCED INDUSTRIAL
     SCIENCE AND TECHNOLOGY, NATIONAL INST. OF STANDARDS AND
     TECHNOLOGY, NESMEYANOV INSTITUTE OF ORGANOELEMENT COMPOUNDS
     OF RUSSIAN ACADEMY OF SCIENCES, OSAKA PREFECTURE UNIVERSITY,
     PENNSYLVANIA STATE UNIVERSITY, TOKYO INSTITUTE OF TECHNOLOGY,
     UNIVERSITY OF AARHUS, UNIVERSITY OF ALBERTA,
     UNIVERSITY OF CALIFORNIA AT SANTA BARBARA,
     UNIVERSITY OF COPENHAGEN, UNIVERSITY OF IOWA,
     UNIVERSITY OF MEMPHIS, UNIVERSITY OF MINNESOTA,
     UNIVERSITY OF NEBRASKA, UNIVERSITY OF NEW ENGLAND,
     UNIVERSITY OF NOTRE DAME, UNIVERSITY OF PISA,
     UNIVERSITY OF SILESIA, UNIVERSITY OF TOKYO,
     UNIVERSITY OF ZURICH, WASEDA UNIVERSITY, YALE UNIVERSITY

  GAMESS SOFTWARE MANAGEMENT TEAM FOR THIS RELEASE:
     MARK S. GORDON (TEAM LEAD),
     BRETT BODE (SENIOR ADVISOR),
     GIUSEPPE BARCA,
     COLLEEN BERTONI,
     KRISTOPHER KEIPERT (ADVISOR),
     SAROM S. LEANG (DEVELOPMENT LEAD),
     BUU PHAM,
     JORGE LUIS GALVEZ VALLEJO (WEBSITE ADMINISTRATOR),
     PENG XU

 EXECUTION OF GAMESS BEGUN 06:20:47 12-MAR-2022    

            ECHO OF THE FIRST FEW INPUT CARDS -
 INPUT CARD> $CONTRL                                                                        
 INPUT CARD>    RUNTYP=CONICAL                                                              
 INPUT CARD>    TDDFT=SPNFLP                                                                
 INPUT CARD>    SCFTYP=ROHF                                                                 
 INPUT CARD>    DFTTYP=BHHLYP                                                               
 INPUT CARD>    ICHARG=0                                                                    
 INPUT CARD>    MULT=3                                                                      
 INPUT CARD>    COORD=UNIQUE                                                                
 INPUT CARD> $END                                                                           
 INPUT CARD> $SYSTEM                                                                        
 INPUT CARD>    MWORDS=128                                                                  
 INPUT CARD> $END                                                                           
 INPUT CARD> $BASIS                                                                         
 INPUT CARD>    GBASIS=N31 NGAUSS=6 NDFUNC=1                                                
 INPUT CARD> $END                                                                           
 INPUT CARD> $CONICL                                                                        
 INPUT CARD>    IXROOT(1)=1,3                                                               
 INPUT CARD> $END                                                                           
 INPUT CARD> $TDDFT                                                                         
 INPUT CARD>    NSTATE=3                                                                    
 INPUT CARD>    TAMMD=.T.                                                                   
 INPUT CARD> $END                                                                           
 INPUT CARD> $DATA                                                                          
 INPUT CARD>C2H4                                                                            
 INPUT CARD>C1 1                                                                            
 INPUT CARD>C 6 0.00000000 0.00000000 0.00000000                                            
 INPUT CARD>C 6 -1.39387800 -0.02023400 0.05708300                                          
 INPUT CARD>H 1 -2.02405800 -0.69695200 0.61316000                                          
 INPUT CARD>H 1 -1.99290200 0.59587100 -0.65717700                                          
 INPUT CARD>H 1 0.70303700 0.57666600 0.58418500                                            
 INPUT CARD>H 1 0.52478100 -0.71663900 -0.63734400                                          
 INPUT CARD> $END                                                                           
 INPUT CARD>                                                                                
  128000000 WORDS OF MEMORY AVAILABLE

     BASIS OPTIONS
     -------------
     GBASIS=N31          IGAUSS=       6      POLAR=POPN31  
     NDFUNC=       1     NFFUNC=       0     DIFFSP=       F
     NPFUNC=       0      DIFFS=       F     BASNAM=        


     RUN TITLE
     ---------
 C2H4                                                                            

 THE POINT GROUP OF THE MOLECULE IS C1      
 THE ORDER OF THE PRINCIPAL AXIS IS     1

 ATOM      ATOMIC                      COORDINATES (BOHR)
           CHARGE         X                   Y                   Z
 C           6.0     0.0000000000        0.0000000000        0.0000000000
 C           6.0    -2.6340474803       -0.0382367156        0.1078712286
 H           1.0    -3.8249150033       -1.3170483066        1.1587043866
 H           1.0    -3.7660387004        1.1260329140       -1.2418844554
 H           1.0     1.3285472892        1.0897407264        1.1039495761
 H           1.0     0.9916922936       -1.3542513421       -1.2044055199

          INTERNUCLEAR DISTANCES (ANGS.)
          ------------------------------

                1 C          2 C          3 H          4 H          5 H     

   1 C       0.0000000    1.3951931 *  2.2267730 *  2.1814221 *  1.0807760 *
   2 C       1.3951931 *  0.0000000    1.0790254 *  1.1173999 *  2.2430289 *
   3 H       2.2267730 *  1.0790254 *  0.0000000    1.8127653 *  3.0099816  
   4 H       2.1814221 *  1.1173999 *  1.8127653 *  0.0000000    2.9680693 *
   5 H       1.0807760 *  2.2430289 *  3.0099816    2.9680693 *  0.0000000  
   6 H       1.0932401 *  2.1560290 *  2.8391421 *  2.8393315 *  1.7878887 *

                6 H     

   1 C       1.0932401 *
   2 C       2.1560290 *
   3 H       2.8391421 *
   4 H       2.8393315 *
   5 H       1.7878887 *
   6 H       0.0000000  

  * ... LESS THAN  3.000


     ATOMIC BASIS SET
     ----------------
 THE CONTRACTED PRIMITIVE FUNCTIONS HAVE BEEN UNNORMALIZED
 THE CONTRACTED BASIS FUNCTIONS ARE NOW NORMALIZED TO UNITY

  SHELL TYPE  PRIMITIVE        EXPONENT          CONTRACTION COEFFICIENT(S)

 C         

      1   S       1          3047.5248800    0.001834737132
      1   S       2           457.3695180    0.014037322813
      1   S       3           103.9486850    0.068842622264
      1   S       4            29.2101553    0.232184443216
      1   S       5             9.2866630    0.467941348435
      1   S       6             3.1639270    0.362311985337

      2   L       7             7.8682723   -0.119332419775    0.068999066591
      2   L       8             1.8812885   -0.160854151696    0.316423960957
      2   L       9             0.5442493    1.143456437840    0.744308290898

      3   L      10             0.1687145    1.000000000000    1.000000000000

      4   D      11             0.8000000    1.000000000000

 C         

      5   S      12          3047.5248800    0.001834737132
      5   S      13           457.3695180    0.014037322813
      5   S      14           103.9486850    0.068842622264
      5   S      15            29.2101553    0.232184443216
      5   S      16             9.2866630    0.467941348435
      5   S      17             3.1639270    0.362311985337

      6   L      18             7.8682723   -0.119332419775    0.068999066591
      6   L      19             1.8812885   -0.160854151696    0.316423960957
      6   L      20             0.5442493    1.143456437840    0.744308290898

      7   L      21             0.1687145    1.000000000000    1.000000000000

      8   D      22             0.8000000    1.000000000000

 H         

      9   S      23            18.7311370    0.033494604338
      9   S      24             2.8253944    0.234726953484
      9   S      25             0.6401217    0.813757326146

     10   S      26             0.1612778    1.000000000000

 H         

     11   S      27            18.7311370    0.033494604338
     11   S      28             2.8253944    0.234726953484
     11   S      29             0.6401217    0.813757326146

     12   S      30             0.1612778    1.000000000000

 H         

     13   S      31            18.7311370    0.033494604338
     13   S      32             2.8253944    0.234726953484
     13   S      33             0.6401217    0.813757326146

     14   S      34             0.1612778    1.000000000000

 H         

     15   S      35            18.7311370    0.033494604338
     15   S      36             2.8253944    0.234726953484
     15   S      37             0.6401217    0.813757326146

     16   S      38             0.1612778    1.000000000000

 TOTAL NUMBER OF BASIS SET SHELLS             =   16
 NUMBER OF CARTESIAN GAUSSIAN BASIS FUNCTIONS =   38
 NUMBER OF ELECTRONS                          =   16
 CHARGE OF MOLECULE                           =    0
 SPIN MULTIPLICITY                            =    3
 NUMBER OF OCCUPIED ORBITALS (ALPHA)          =    9
 NUMBER OF OCCUPIED ORBITALS (BETA )          =    7
 TOTAL NUMBER OF ATOMS                        =    6
 THE NUCLEAR REPULSION ENERGY IS       32.3646159064

 SELECTED MURRAY-HANDY-LAMING RADIAL GRID

 LEGACY BECKE'S FUZZY CELL METHOD

 SELECTED ORIGINAL BECKE'S PARTITION FUNCTION

     LEBEDEV GRID-BASED DFT OPTIONS
     ------------------------------
     DFTTYP=BHHLYP  
     NRAD  =      96     NLEB  =     302
     NRAD0 =      24     NLEB0 =     110
     SWOFF =    5.00E-03 (PURE SCF -> DFT)
     SWITCH=    3.00E-04 (COARSE -> TIGHT GRID)
     THRESH=    0.00E+00 GTHRE=    1.00E+00

 GRIMME'S EMPIRICAL DISPERSION CORRECTION= F

     $CONTRL OPTIONS
     ---------------
 SCFTYP=ROHF         RUNTYP=CONICAL      EXETYP=RUN     
 MPLEVL=       0     CITYP =NONE         CCTYP =NONE         VBTYP =NONE    
 DFTTYP=BHHLYP       TDDFT =SPNFLP  
 MULT  =       3     ICHARG=       0     NZVAR =       0     COORD =UNIQUE  
 PP    =NONE         RELWFN=NONE         LOCAL =NONE         NUMGRD=       F
 ISPHER=      -1     NOSYM =       0     MAXIT =      30     UNITS =ANGS    
 PLTORB=       F     MOLPLT=       F     AIMPAC=       F     FRIEND=        
 NPRINT=       7     IREST =       0     GEOM  =INPUT   
 NORMF =       0     NORMP =       0     ITOL  =      20     ICUT  =       9
 INTTYP=BEST         GRDTYP=BEST         QMTTOL= 1.0E-06

     $SYSTEM OPTIONS
     ---------------
  REPLICATED MEMORY=   128000000 WORDS (ON EVERY NODE).
 DISTRIBUTED MEMDDI=           0 MILLION WORDS IN AGGREGATE,
 MEMDDI DISTRIBUTED OVER   1 PROCESSORS IS           0 WORDS/PROCESSOR.
 TOTAL MEMORY REQUESTED ON EACH PROCESSOR=   128000000 WORDS.
 TIMLIM=      525600.00 MINUTES, OR     365.0 DAYS.
 PARALL= F  BALTYP=  DLB     KDIAG=    0  COREFL= F
 MXSEQ2=     300 MXSEQ3=     150  mem10=         0  mem22=         0

          ----------------
          PROPERTIES INPUT
          ----------------

     MOMENTS            FIELD           POTENTIAL          DENSITY
 IEMOM =       1   IEFLD =       0   IEPOT =       0   IEDEN =       0
 WHERE =COMASS     WHERE =NUCLEI     WHERE =NUCLEI     WHERE =NUCLEI  
 OUTPUT=BOTH       OUTPUT=BOTH       OUTPUT=BOTH       OUTPUT=BOTH    
 IEMINT=       0   IEFINT=       0                     IEDINT=       0
                                                       MORB  =       0
          EXTRAPOLATION IN EFFECT
          DIIS IN EFFECT
 ORBITAL PRINTING OPTION: NPREO=     1    38     2     1

     -------------------------------
     INTEGRAL TRANSFORMATION OPTIONS
     -------------------------------
     NWORD  =            0
     CUTOFF = 1.0E-09     MPTRAN =       0
     DIRTRF =       F     AOINTS =DUP     

          ----------------------
          INTEGRAL INPUT OPTIONS
          ----------------------
 NOPK  =       1 NORDER=       0 SCHWRZ=       T

          ----------------------
          TDDFT INPUT PARAMETERS
          ----------------------
 NSTATE=       3 IROOT =       1 MULT  =       3
 MAXVEC=      50 NTRIAL=       5 CNVTOL=  1.00E-07
 TDPRP =       F TRNSD =       F TAMMD =       T
 TPA   =       F ALPHA =       F BETA  =       F
 PFREQ =    0.00    0.00
   NRAD=      48   NLEB=     110

     ------------------------------------------
     THE POINT GROUP IS C1 , NAXIS= 1, ORDER= 1
     ------------------------------------------

     DIMENSIONS OF THE SYMMETRY SUBSPACES ARE
 A   =   38

 ..... DONE SETTING UP THE RUN .....
 STEP CPU TIME =     0.01 TOTAL CPU TIME =          0.0 (      0.0 MIN)
 TOTAL WALL CLOCK TIME=          0.0 SECONDS, CPU UTILIZATION IS    87.08%


          -----------------------------
          STATIONARY POINT LOCATION RUN
          -----------------------------

 OBTAINING INITIAL HESSIAN, HESS=GUESS   
 CARTESIAN COORDINATE OPTIMIZATION USING BADGER'S RULE FORCE CONSTANT GUESS

          PARAMETERS CONTROLLING GEOMETRY SEARCH ARE
          METHOD =QA                  UPHESS =BFGS    
          NNEG   =         0          NFRZ   =         0
          NSTEP  =        50          IFOLOW =         1
          HESS   =GUESS               RESTAR =         F
          IHREP  =         0          HSSEND =         F
          NPRT   =         0          NPUN   =         0
          OPTTOL = 1.000E-04          RMIN   = 1.500E-03
          RMAX   = 1.000E-01          RLIM   = 7.000E-02
          DXMAX  = 2.000E-01          PURIFY =         F
          MOVIE  =         F          TRUPD  =         T
          TRMAX  = 3.000E-01          TRMIN  = 5.000E-02
          ITBMAT =         5          STPT   =         F
          STSTEP = 1.000E-02          PROJCT=          T


          ---------------------------------------
          CONICAL INTERSECTION POINT LOCATION RUN
          ---------------------------------------

          IXROOT(1)=          1          IXROOT(2)=          3
          SYMOFF   =          T          DEBUG    =          F
          TOLSTP   =  1.000E-06          TOLGRD   =  5.000E-03
          ALPHA    =  2.000E-02          SIGMA    =  3.500E+00

 CONICAL INTERSECTION SEARCH BY BRANCHING PLANE UPDATING METHOD

 REFERENCE: S. MAEDA, K. OHNO, AND K. MOROKUMA,
            J. CHEM. THEORY COMPUT. 6, 1538 (2010).

 PROGRAMMED BY NORIYUKI MINEZAWA


 BEGINNING GEOMETRY SEARCH POINT NSERCH=   0 ...

 COORDINATES OF ALL ATOMS ARE (ANGS)
   ATOM   CHARGE       X              Y              Z
 ------------------------------------------------------------
 C           6.0   0.0000000000   0.0000000000   0.0000000000
 C           6.0  -1.3938780000  -0.0202340000   0.0570830000
 H           1.0  -2.0240580000  -0.6969520000   0.6131600000
 H           1.0  -1.9929020000   0.5958710000  -0.6571770000
 H           1.0   0.7030370000   0.5766660000   0.5841850000
 H           1.0   0.5247810000  -0.7166390000  -0.6373440000

          ********************
          1 ELECTRON INTEGRALS
          ********************
 ...... END OF ONE-ELECTRON INTEGRALS ......
 STEP CPU TIME =     0.00 TOTAL CPU TIME =          0.0 (      0.0 MIN)
 TOTAL WALL CLOCK TIME=          0.0 SECONDS, CPU UTILIZATION IS    87.82%

          -------------
          GUESS OPTIONS
          -------------
          GUESS =HUCKEL            NORB  =       0          NORDER=       0
          MIX   =       F          PRTMO =       F          PUNMO =       F
          TOLZ  = 1.0E-08          TOLE  = 1.0E-05
          SYMDEN=       F          PURIFY=       F

 INITIAL GUESS ORBITALS GENERATED BY HUCKEL   ROUTINE.
 HUCKEL GUESS REQUIRES     15726 WORDS.

 SYMMETRIES FOR INITIAL GUESS ORBITALS FOLLOW.  ALPHA SET(S).
     9 ORBITALS ARE OCCUPIED (    2 CORE ORBITALS).
     3=A        4=A        5=A        6=A        7=A        8=A        9=A   
    10=A       11=A       12=A       13=A       14=A       15=A       16=A   
    17=A       18=A       19=A   

 SYMMETRIES FOR INITIAL GUESS ORBITALS FOLLOW.   BETA SET(S).
     7 ORBITALS ARE OCCUPIED (    2 CORE ORBITALS).
     3=A        4=A        5=A        6=A        7=A        8=A        9=A   
    10=A       11=A       12=A       13=A       14=A       15=A       16=A   
    17=A   
 ...... END OF INITIAL ORBITAL SELECTION ......
 STEP CPU TIME =     0.00 TOTAL CPU TIME =          0.0 (      0.0 MIN)
 TOTAL WALL CLOCK TIME=          0.0 SECONDS, CPU UTILIZATION IS    88.81%

                    ----------------------
                    AO INTEGRAL TECHNOLOGY
                    ----------------------
     S,P,L SHELL ROTATED AXIS INTEGRALS, REPROGRAMMED BY
        KAZUYA ISHIMURA (IMS) AND JOSE SIERRA (SYNSTAR).
     S,P,D,L SHELL ROTATED AXIS INTEGRALS PROGRAMMED BY
        KAZUYA ISHIMURA (INSTITUTE FOR MOLECULAR SCIENCE).
     S,P,D,F,G SHELL TO TOTAL QUARTET ANGULAR MOMENTUM SUM 5,
        ERIC PROGRAM BY GRAHAM FLETCHER (ELORET AND NASA ADVANCED
        SUPERCOMPUTING DIVISION, AMES RESEARCH CENTER).
     S,P,D,F,G,L SHELL GENERAL RYS QUADRATURE PROGRAMMED BY
        MICHEL DUPUIS (PACIFIC NORTHWEST NATIONAL LABORATORY).

          --------------------
          2 ELECTRON INTEGRALS
          --------------------

 THE -PK- OPTION IS OFF, THE INTEGRALS ARE NOT IN SUPERMATRIX FORM.
 STORING   15000 INTEGRALS/RECORD ON DISK, USING 12 BYTES/INTEGRAL.
 TWO ELECTRON INTEGRAL EVALUATION REQUIRES   90532 WORDS OF MEMORY.
 SCHWARZ INEQUALITY OVERHEAD:       741 INTEGRALS, T=        0.00
 II,JST,KST,LST =  1  1  1  1 NREC =         1 INTLOC =    1
 II,JST,KST,LST =  2  1  1  1 NREC =         1 INTLOC =    2
 II,JST,KST,LST =  3  1  1  1 NREC =         1 INTLOC =   34
 II,JST,KST,LST =  4  1  1  1 NREC =         1 INTLOC =  214
 II,JST,KST,LST =  5  1  1  1 NREC =         1 INTLOC = 1189
 II,JST,KST,LST =  6  1  1  1 NREC =         1 INTLOC = 3223
 II,JST,KST,LST =  7  1  1  1 NREC =         2 INTLOC =  969
 II,JST,KST,LST =  8  1  1  1 NREC =         3 INTLOC = 8213
 II,JST,KST,LST =  9  1  1  1 NREC =         7 INTLOC = 6131
 II,JST,KST,LST = 10  1  1  1 NREC =         8 INTLOC = 6037
 II,JST,KST,LST = 11  1  1  1 NREC =         9 INTLOC = 7437
 II,JST,KST,LST = 12  1  1  1 NREC =        10 INTLOC =10419
 II,JST,KST,LST = 13  1  1  1 NREC =        12 INTLOC =   87
 II,JST,KST,LST = 14  1  1  1 NREC =        13 INTLOC = 6517
 II,JST,KST,LST = 15  1  1  1 NREC =        14 INTLOC =14863
 II,JST,KST,LST = 16  1  1  1 NREC =        16 INTLOC =10188
 SCHWARZ INEQUALITY TEST SKIPPED          25 INTEGRAL BLOCKS.
 TOTAL NUMBER OF NONZERO TWO-ELECTRON INTEGRALS =              262642
         18 INTEGRAL RECORDS WERE STORED ON DISK FILE  8.
  ...... END OF TWO-ELECTRON INTEGRALS .....
 STEP CPU TIME =     0.06 TOTAL CPU TIME =          0.1 (      0.0 MIN)
 TOTAL WALL CLOCK TIME=          0.1 SECONDS, CPU UTILIZATION IS    88.20%

          ---------------------------
            RO-BHHLYP SCF CALCULATION
          ---------------------------

     NUCLEAR ENERGY =        32.3646159064
     MAXIT = 30     NPUNCH=  2     MULT=  3
     EXTRAP=T  DAMP=F  SHIFT=F  RSTRCT=F  DIIS=T  SOSCF=F
         DENSITY MATRIX CONVERGENCE THRESHOLD=  1.00E-06
     COARSE -> FINE DFT GRID SWITCH THRESHOLD=  3.00E-04 (SWITCH IN $DFT)
                   HF -> DFT SWITCH THRESHOLD=  5.00E-03 (SWOFF IN $DFT)
     ROHF CANONICALIZATION PARAMETERS
             C-C     O-O     V-V
     ALPHA -0.5000  0.5000  1.5000
     BETA   1.5000  0.5000 -0.5000
     MEMORY REQUIRED FOR UHF/ROHF ITERS=    270142 WORDS.

 DFT CODE IS SWITCHING FROM THE FINE GRID NRAD= 96,  NLEB=  302
                      TO THE COARSE GRID NRAD0= 24, NLEB0=  110

     EXCHANGE FUNCTIONAL   =B88&HFX   
     CORRELATION FUNCTIONAL=LYP88     
     DFT THRESHOLD         =.230E-07
     GRID CHANGE THRESHOLD =.300E-03
 FOR AN EULER-MACLAURIN QUADRATURE USING  96 RADIAL POINTS:
 SMALLEST GAUSSIAN PRIMITIVE EXPONENT=        0.1612777588 OF TYPE -S-
 ON ATOM NUMBER   3 HAS RADIAL NORMALIZATION=  1.000000
  LARGEST GAUSSIAN PRIMITIVE EXPONENT=     3047.5248800000 OF TYPE -S-
 ON ATOM NUMBER   1 HAS RADIAL NORMALIZATION=  1.000000
 DFT IS SWITCHED OFF, PERFORMING PURE SCF UNTIL SWOFF THRESHOLD IS REACHED.

 ITER EX      TOTAL ENERGY        E CHANGE  DENSITY CHANGE    DIIS ERROR
          * * *   INITIATING DIIS PROCEDURE   * * *
   1  0      -77.7547271394   -77.7547271394   0.130748523   0.419755784
   2  1      -77.9456572681    -0.1909301288   0.040720244   0.028223067
   3  2      -77.9501569417    -0.0044996735   0.009424762   0.017985819
   4  3      -77.9505381182    -0.0003811766   0.003916788   0.002559155
 CONVERGED TO SWOFF, SO DFT CALCULATION IS NOW SWITCHED ON.
          * * *   INITIATING DIIS PROCEDURE   * * *
   5  4      -78.4227782022    -0.4722400840   0.035136390   0.063269956
   6  5      -78.4257774985    -0.0029992963   0.018101439   0.015409716
   7  6      -78.4260723236    -0.0002948251   0.007739514   0.010936076
   8  7      -78.4264127545    -0.0003404309   0.000163026   0.000112514
 DFT CODE IS SWITCHING BACK TO THE FINE GRID
          * * *   INITIATING DIIS PROCEDURE   * * *
   9  8      -78.4266422010    -0.0002294464   0.000441265   0.000877006
  10  9      -78.4266429583    -0.0000007574   0.000096266   0.000083093
  11 10      -78.4266429734    -0.0000000150   0.000053019   0.000069494
  12 11      -78.4266429818    -0.0000000085   0.000010279   0.000012791
  13 12      -78.4266429822    -0.0000000004   0.000001285   0.000000659
  14 13      -78.4266429822     0.0000000000   0.000000481   0.000000519

          -----------------
          DENSITY CONVERGED
          -----------------
     TIME TO FORM FOCK OPERATORS=       5.1 SECONDS (       0.4 SEC/ITER)
     TIME TO SOLVE SCF EQUATIONS=       0.0 SECONDS (       0.0 SEC/ITER)

 THE CONVERGED ORBITALS WILL UNDERGO GUEST/SAUNDERS
 CANONICALIZATION FOR SPIN-FLIP TDDFT.

 FINAL RO-BHHLYP ENERGY IS      -78.4266429822 AFTER  14 ITERATIONS
 DFT EXCHANGE + CORRELATION ENERGY =        -6.3637346840
 TOTAL ELECTRON NUMBER             =        15.9999783356

          --------------------
          SPIN SZ   =    1.000
          S-SQUARED =    2.000
          --------------------

          ------------
          EIGENVECTORS
          ------------

                      1          2          3          4          5
                  -10.5901   -10.5879    -0.8484    -0.6702    -0.4940
                     A          A          A          A          A   
    1  C  1  S    0.168066   0.979559  -0.157125   0.121388   0.010257
    2  C  1  S    0.006668   0.040071   0.305855  -0.240098  -0.026962
    3  C  1  X    0.000415  -0.000303  -0.092509  -0.169374   0.359761
    4  C  1  Y   -0.000014  -0.000103  -0.009890   0.004223   0.029546
    5  C  1  Z   -0.000008   0.000057   0.004223  -0.003146   0.074177
    6  C  1  S    0.001129  -0.012376   0.242540  -0.245395  -0.002154
    7  C  1  X   -0.001759   0.000906  -0.004343  -0.059484   0.131271
    8  C  1  Y   -0.000001   0.000288  -0.004134   0.004367   0.015840
    9  C  1  Z    0.000018   0.000029   0.001695  -0.000695   0.029863
   10  C  1 XX   -0.001519  -0.006019   0.013596   0.003336  -0.006924
   11  C  1 YY   -0.001242  -0.006574  -0.006340  -0.003250   0.008368
   12  C  1 ZZ   -0.001247  -0.006588  -0.007465  -0.001728   0.008088
   13  C  1 XY    0.000015   0.000041   0.001083  -0.000641   0.007951
   14  C  1 XZ    0.000019   0.000035   0.000014  -0.002430   0.002926
   15  C  1 YZ    0.000074   0.000160   0.009863  -0.015180   0.008245
   16  C  2  S    0.979511  -0.168438  -0.155322  -0.123446   0.007902
   17  C  2  S    0.039910  -0.007067   0.302284   0.244125  -0.022102
   18  C  2  X    0.000168  -0.000496   0.095420  -0.158367  -0.353729
   19  C  2  Y   -0.000098   0.000019  -0.005255  -0.018552  -0.140895
   20  C  2  Z   -0.000128   0.000029  -0.009900  -0.002977   0.141278
   21  C  2  S   -0.011302   0.005156   0.241695   0.250317   0.003276
   22  C  2  X   -0.000337   0.001910   0.005672  -0.056929  -0.127024
   23  C  2  Y    0.000032  -0.000062  -0.002095  -0.007653  -0.059877
   24  C  2  Z    0.000320  -0.000011  -0.004839  -0.003174   0.055356
   25  C  2 XX   -0.006175   0.000573   0.013391  -0.003698  -0.007884
   26  C  2 YY   -0.006581   0.001016  -0.006726   0.002872   0.010565
   27  C  2 ZZ   -0.006599   0.001019  -0.007061   0.002148   0.006224
   28  C  2 XY    0.000077  -0.000018   0.001226   0.002883   0.010795
   29  C  2 XZ   -0.000045   0.000042  -0.000577   0.000216  -0.004262
   30  C  2 YZ   -0.000163  -0.000020  -0.009644  -0.015129  -0.008888
   31  H  3  S   -0.000310  -0.000068   0.083984   0.151758   0.215751
   32  H  3  S    0.002154  -0.000121   0.016422   0.068644   0.171164
   33  H  4  S   -0.000196  -0.000087   0.082040   0.133366   0.002778
   34  H  4  S    0.002203   0.000046   0.016957   0.060975   0.002121
   35  H  5  S   -0.000137  -0.000284   0.083627  -0.151877   0.163089
   36  H  5  S    0.000706   0.002023   0.016788  -0.068670   0.126934
   37  H  6  S   -0.000176  -0.000167   0.087811  -0.137789   0.054576
   38  H  6  S    0.000724   0.002176   0.017445  -0.062474   0.044806

                      6          7          8          9         10
                   -0.4804    -0.4719    -0.1249    -0.1184     0.1786
                     A          A          A          A          A   
    1  C  1  S   -0.000510  -0.008722  -0.009062  -0.005459   0.100608
    2  C  1  S    0.001250   0.022352   0.022547   0.010465  -0.114868
    3  C  1  X    0.023425  -0.182080  -0.020704   0.001764  -0.056781
    4  C  1  Y    0.318768   0.077379   0.319631   0.259880  -0.003408
    5  C  1  Z    0.241801   0.189160  -0.285689  -0.323179  -0.019400
    6  C  1  S    0.001076   0.012050   0.025743   0.037659  -1.449268
    7  C  1  X    0.008925  -0.069344  -0.008747   0.000377  -0.241522
    8  C  1  Y    0.136176   0.040312   0.284107   0.233047   0.005162
    9  C  1  Z    0.109585   0.077471  -0.251419  -0.291026  -0.022902
   10  C  1 XX    0.005157   0.005435   0.000961  -0.003461   0.016016
   11  C  1 YY   -0.004902  -0.006428  -0.001562   0.000705   0.005220
   12  C  1 ZZ   -0.001086  -0.004363  -0.001064   0.001656   0.005230
   13  C  1 XY    0.011558   0.013783   0.018745  -0.017448   0.001271
   14  C  1 XZ    0.018799  -0.002229   0.016180  -0.019381   0.001572
   15  C  1 YZ   -0.003220  -0.006552  -0.002343   0.001078   0.005708
   16  C  2  S   -0.005485  -0.008475   0.008422  -0.005385  -0.120101
   17  C  2  S    0.011748   0.023303  -0.017163   0.011296   0.147904
   18  C  2  X   -0.011226   0.199400   0.020506  -0.026653  -0.096859
   19  C  2  Y    0.202469  -0.208220  -0.313382   0.278916   0.009735
   20  C  2  Z   -0.076769   0.276160  -0.269085   0.327261  -0.033834
   21  C  2  S    0.016922   0.002095  -0.037971   0.022951   1.744621
   22  C  2  X   -0.006447   0.077722   0.025383  -0.016723  -0.370080
   23  C  2  Y    0.082260  -0.097540  -0.277958   0.248889   0.002288
   24  C  2  Z   -0.041242   0.123371  -0.235227   0.295678  -0.098145
   25  C  2 XX   -0.000669   0.005860   0.000678  -0.000927  -0.014065
   26  C  2 YY   -0.001036  -0.002572   0.001126   0.000345  -0.006513
   27  C  2 ZZ    0.002227  -0.009410  -0.000498  -0.000660  -0.006783
   28  C  2 XY    0.000763   0.016419   0.019200   0.016489   0.000240
   29  C  2 XZ    0.015424  -0.010221  -0.017569  -0.019031  -0.001735
   30  C  2 YZ   -0.002073   0.005860  -0.000661   0.000091   0.004932
   31  H  3  S   -0.095007   0.116560   0.078586   0.062754  -0.045402
   32  H  3  S   -0.077498   0.096991   0.121833   0.104013  -1.049037
   33  H  4  S    0.112356  -0.244532  -0.070996  -0.079684  -0.055302
   34  H  4  S    0.093798  -0.207352  -0.111907  -0.123743  -1.144411
   35  H  5  S    0.204356   0.030582   0.061242  -0.075615   0.051304
   36  H  5  S    0.166969   0.025656   0.093972  -0.120785   0.954848
   37  H  6  S   -0.214911  -0.149933  -0.080103   0.072751   0.037020
   38  H  6  S   -0.177746  -0.127658  -0.126560   0.116613   0.786802

                     11         12         13         14         15
                    0.1946     0.2444     0.2497     0.3625     0.5668
                     A          A          A          A          A   
    1  C  1  S   -0.094182  -0.009105   0.003348   0.081153  -0.021298
    2  C  1  S    0.145153   0.025629  -0.009419  -0.066243  -0.301647
    3  C  1  X    0.185685  -0.010423  -0.043923   0.200183   0.558106
    4  C  1  Y   -0.046621   0.133256  -0.277230   0.018221  -0.037162
    5  C  1  Z   -0.029160   0.164502  -0.247056   0.007984  -0.107979
    6  C  1  S    1.646044   0.078368  -0.073463  -2.477694  -0.141920
    7  C  1  X    0.664070   0.020362  -0.161407   2.698452  -0.991941
    8  C  1  Y   -0.164336   0.225143  -1.153608   0.028689   0.060673
    9  C  1  Z   -0.068334   0.833805  -0.752100  -0.034454   0.106990
   10  C  1 XX    0.005369  -0.000420   0.003327   0.014446  -0.109278
   11  C  1 YY   -0.005901   0.002561  -0.001030  -0.010256   0.015164
   12  C  1 ZZ   -0.006212  -0.000865  -0.003125  -0.008756   0.012901
   13  C  1 XY    0.000479  -0.017214  -0.006558  -0.003122  -0.004124
   14  C  1 XZ    0.002105   0.013965   0.010373  -0.000927   0.006234
   15  C  1 YZ    0.004993   0.002734  -0.000273  -0.022053   0.007653
   16  C  2  S   -0.067333   0.008571   0.012778  -0.082088  -0.020858
   17  C  2  S    0.114990  -0.019094  -0.002324   0.068325  -0.301346
   18  C  2  X   -0.169403  -0.020576   0.044348   0.198204  -0.572357
   19  C  2  Y    0.002983   0.257958   0.168166   0.036205   0.014466
   20  C  2  Z   -0.026752  -0.274285  -0.129196  -0.012502  -0.058886
   21  C  2  S    1.209758  -0.121063  -0.384166   2.517316  -0.127388
   22  C  2  X   -0.584861  -0.046423   0.104885   2.671947   1.009086
   23  C  2  Y    0.038165   0.773185   0.867747   0.142313  -0.027897
   24  C  2  Z   -0.081486  -1.107383  -0.200957  -0.171715   0.032408
   25  C  2 XX    0.008176   0.003945   0.001405  -0.013298  -0.106760
   26  C  2 YY   -0.004813  -0.000600  -0.001132   0.009313   0.013983
   27  C  2 ZZ   -0.003830  -0.002224   0.002788   0.009341   0.014512
   28  C  2 XY   -0.001000   0.011704  -0.014472  -0.001884  -0.004190
   29  C  2 XZ   -0.000563   0.005916  -0.016460   0.002520   0.004164
   30  C  2 YZ   -0.005962   0.001873  -0.000474  -0.022477  -0.007950
   31  H  3  S   -0.005424   0.018305   0.006725   0.024761  -0.000179
   32  H  3  S   -0.872545   1.452432   1.053941   0.746939   0.200129
   33  H  4  S   -0.011416  -0.023583  -0.009101   0.063696   0.060332
   34  H  4  S   -0.950229  -1.411384  -0.588852   0.334466   0.085302
   35  H  5  S   -0.008781  -0.006857   0.017121  -0.019914  -0.022097
   36  H  5  S   -1.069906  -0.827638   1.530016  -0.743246   0.234650
   37  H  6  S   -0.022636   0.019111  -0.014715  -0.062051   0.072449
   38  H  6  S   -1.293673   0.793283  -1.408389  -0.397677   0.064017

                     16         17         18         19         20
                    0.6555     0.6563     0.7197     0.7541     0.7799
                     A          A          A          A          A   
    1  C  1  S    0.004050   0.000021  -0.058619  -0.056023   0.015841
    2  C  1  S    0.044834  -0.006419   0.057855  -0.418679  -0.069639
    3  C  1  X    0.095616   0.017550  -0.613843  -0.225177   0.073923
    4  C  1  Y    0.103231  -0.725618  -0.037110   0.056062  -0.497398
    5  C  1  Z    0.092451   0.722017  -0.159833   0.318995  -0.329142
    6  C  1  S   -0.044744  -0.132843  -0.107487   1.226427   0.255884
    7  C  1  X   -0.328962  -0.022112   1.084966   0.522786   0.126572
    8  C  1  Y   -0.267534   0.733187   0.227741  -0.178118   1.710047
    9  C  1  Z   -0.256991  -0.669924   0.525534  -0.963026   0.941771
   10  C  1 XX    0.012147  -0.015004  -0.128732  -0.091680   0.027158
   11  C  1 YY    0.000709   0.004395   0.020369  -0.037555  -0.001562
   12  C  1 ZZ    0.007831   0.001941   0.019467  -0.015744  -0.013200
   13  C  1 XY   -0.005580  -0.000147  -0.060918   0.059362  -0.047760
   14  C  1 XZ   -0.009230  -0.008584  -0.027702   0.000833  -0.115947
   15  C  1 YZ    0.009689   0.003416  -0.059026  -0.099000   0.017639
   16  C  2  S   -0.008600   0.003692   0.067181  -0.003725  -0.020711
   17  C  2  S    0.031311   0.025155   0.090129  -0.435036  -0.055434
   18  C  2  X    0.006390  -0.062950  -0.571704  -0.221676   0.247893
   19  C  2  Y    0.719008  -0.086069   0.089515   0.253705   0.375343
   20  C  2  Z    0.717079   0.111391   0.188773  -0.305801  -0.100173
   21  C  2  S   -0.154060  -0.068702  -0.109023   0.865936   0.451593
   22  C  2  X   -0.109683   0.196588   1.052265  -0.223549  -0.502380
   23  C  2  Y   -0.713072   0.239766  -0.056735  -0.655988  -1.414659
   24  C  2  Z   -0.670578  -0.279175  -0.489423   1.015658   0.178773
   25  C  2 XX   -0.011041   0.010219   0.146229   0.005713  -0.026129
   26  C  2 YY    0.003052   0.006958  -0.002872  -0.052932  -0.011901
   27  C  2 ZZ    0.005752  -0.005312  -0.012778  -0.025039   0.001286
   28  C  2 XY    0.001609  -0.005668   0.048867  -0.076700  -0.008534
   29  C  2 XZ    0.006389   0.012086   0.003119   0.034222   0.102995
   30  C  2 YZ    0.007148  -0.003392  -0.082752   0.038548   0.033059
   31  H  3  S   -0.046830   0.190434   0.418670  -0.465266  -0.351578
   32  H  3  S   -0.026752   0.273767   0.201387  -0.476187  -0.504532
   33  H  4  S   -0.021443  -0.108053   0.256445   0.017745   0.138394
   34  H  4  S   -0.014853  -0.194375   0.105616   0.131964   0.097475
   35  H  5  S    0.214524  -0.008850  -0.431356  -0.240004  -0.359096
   36  H  5  S    0.295995   0.022919  -0.222919  -0.017010  -0.592488
   37  H  6  S   -0.092680   0.039095  -0.049343  -0.576374   0.377034
   38  H  6  S   -0.193869   0.025327  -0.104772  -0.407249   0.480961

                     21         22         23         24         25
                    0.7871     0.9579     0.9705     1.0244     1.0613
                     A          A          A          A          A   
    1  C  1  S    0.021291   0.010950  -0.005311   0.023182   0.013897
    2  C  1  S    0.494192  -0.020331   0.147764  -0.441419  -1.098336
    3  C  1  X   -0.076172  -0.049129  -0.070598  -0.514200  -0.415547
    4  C  1  Y    0.059366  -0.054576  -0.676729  -0.011705  -0.006926
    5  C  1  Z    0.232454   0.026627  -0.638355  -0.046174  -0.012674
    6  C  1  S   -0.995898   0.030780  -0.335821   0.742045   2.165795
    7  C  1  X   -0.551239   0.072033   0.143303   0.803177   0.766459
    8  C  1  Y    0.021048   0.216508   1.165529   0.057162  -0.003447
    9  C  1  Z   -0.857038  -0.128935   1.099634   0.141371   0.012447
   10  C  1 XX    0.029871   0.014066   0.019817  -0.079593  -0.106739
   11  C  1 YY    0.038019  -0.007905  -0.008000   0.002270  -0.027099
   12  C  1 ZZ    0.040585  -0.008076   0.000629  -0.011546  -0.032988
   13  C  1 XY    0.063065  -0.078118   0.142122   0.036957   0.007029
   14  C  1 XZ   -0.011110   0.081347   0.137131   0.000261   0.036092
   15  C  1 YZ    0.064081   0.021578  -0.027945   0.099839   0.089698
   16  C  2  S    0.046505  -0.009108   0.011344  -0.024128   0.008468
   17  C  2  S    0.437145   0.246984   0.004252   0.624727  -1.014280
   18  C  2  X   -0.111377  -0.115345  -0.055388  -0.558093   0.292226
   19  C  2  Y    0.246889   0.639914   0.046031  -0.184092   0.084174
   20  C  2  Z   -0.380019  -0.642524   0.046746   0.131209  -0.011651
   21  C  2  S   -1.225235  -0.441096   0.024026  -1.103218   2.059024
   22  C  2  X    0.358442   0.181981   0.119939   0.892427  -0.541930
   23  C  2  Y   -0.752614  -1.130694  -0.167229   0.272966  -0.136887
   24  C  2  Z    1.254261   1.109726  -0.169821  -0.255567  -0.001258
   25  C  2 XX    0.069623   0.021245   0.019389   0.098036  -0.093232
   26  C  2 YY    0.017918   0.017270  -0.006133   0.004300  -0.026527
   27  C  2 ZZ    0.045727  -0.006323  -0.002788   0.015392  -0.029066
   28  C  2 XY   -0.072805   0.133188  -0.084766  -0.047367   0.019202
   29  C  2 XZ    0.050951  -0.133306  -0.083435   0.027338  -0.021154
   30  C  2 YZ   -0.094056   0.033158  -0.012950   0.109140  -0.065396
   31  H  3  S    0.082744   0.458869   0.050923  -0.674708   0.400192
   32  H  3  S   -0.202289  -1.152794   0.017006   1.320252  -1.055032
   33  H  4  S    0.690981  -0.779200   0.050069  -0.348116   0.279607
   34  H  4  S    0.507230   1.740791   0.009951   0.592443  -0.800589
   35  H  5  S    0.396535   0.090216   0.583806   0.479154   0.498792
   36  H  5  S    0.457546  -0.132537  -1.375852  -0.926988  -1.196126
   37  H  6  S    0.214844   0.086565  -0.699965   0.437104   0.391504
   38  H  6  S    0.061980  -0.055656   1.607163  -0.654202  -1.030311

                     26         27         28         29         30
                    1.1218     1.6589     1.8357     1.8922     1.9498
                     A          A          A          A          A   
    1  C  1  S   -0.032464   0.000024  -0.002111  -0.000183   0.000028
    2  C  1  S   -1.405309   0.006019  -0.072541   0.010544   0.043116
    3  C  1  X    0.294349  -0.001806   0.025697   0.015057  -0.032708
    4  C  1  Y    0.013809  -0.038876   0.006759   0.141976  -0.019404
    5  C  1  Z   -0.013044   0.001999  -0.120277   0.041988   0.062404
    6  C  1  S    4.857853  -0.000145   0.059706  -0.144868   0.056192
    7  C  1  X   -1.893513  -0.024606  -0.099805   0.370331   0.039088
    8  C  1  Y   -0.136158   0.022219  -0.535304   0.348047   0.361537
    9  C  1  Z   -0.001705  -0.023046  -0.147754   0.656916   0.012157
   10  C  1 XX    0.001017   0.009290  -0.006337  -0.069590  -0.016320
   11  C  1 YY   -0.112431  -0.578115  -0.387418  -0.135016  -0.472316
   12  C  1 ZZ   -0.097860   0.568138   0.381260   0.210568   0.503769
   13  C  1 XY    0.013604  -0.133593   0.218662   0.567345  -0.250618
   14  C  1 XZ   -0.000619   0.082311  -0.524907  -0.083971   0.375732
   15  C  1 YZ   -0.117205   0.029249   0.051605   0.129928   0.045556
   16  C  2  S    0.033601   0.000380   0.002442   0.000904   0.001138
   17  C  2  S    1.396682   0.009306  -0.021312   0.010786   0.055979
   18  C  2  X    0.296044  -0.003868  -0.029976   0.061213   0.029739
   19  C  2  Y    0.017584  -0.042940   0.019316   0.134438  -0.026522
   20  C  2  Z   -0.009585   0.020552  -0.117212   0.012492   0.062632
   21  C  2  S   -4.849376  -0.034124  -0.136621   0.219469  -0.026573
   22  C  2  X   -1.879863  -0.010224   0.101896   0.196413  -0.121556
   23  C  2  Y   -0.004863  -0.020459   0.564382   0.123806  -0.464928
   24  C  2  Z    0.147301   0.035759  -0.233162  -0.593803   0.285511
   25  C  2 XX   -0.001846  -0.004932   0.071506  -0.015198  -0.070859
   26  C  2 YY    0.103754  -0.578359   0.246874  -0.064343   0.613696
   27  C  2 ZZ    0.108670   0.583692  -0.331167   0.092958  -0.526050
   28  C  2 XY   -0.018427   0.138474   0.095904  -0.630573  -0.054780
   29  C  2 XZ    0.006023  -0.003339   0.507210  -0.327850  -0.271915
   30  C  2 YZ   -0.122401   0.003088   0.083282   0.068306  -0.020731
   31  H  3  S    0.151057  -0.057945   0.355315   0.349997  -0.293906
   32  H  3  S    0.177909   0.024470   0.172887   0.130107  -0.154439
   33  H  4  S    0.178966   0.053833  -0.265998  -0.220920   0.249372
   34  H  4  S    0.187896  -0.016278  -0.079069  -0.079593   0.102604
   35  H  5  S   -0.107939   0.029716   0.267029  -0.488937  -0.149930
   36  H  5  S   -0.152962  -0.008892   0.111814  -0.231780  -0.070245
   37  H  6  S   -0.185127  -0.021590  -0.244904   0.336685   0.105374
   38  H  6  S   -0.236937   0.029723  -0.123503   0.090081   0.073857

                     31         32         33         34         35
                    2.0419     2.1071     2.2947     2.6162     2.6442
                     A          A          A          A          A   
    1  C  1  S    0.037010  -0.025226  -0.027571   0.009773   0.001095
    2  C  1  S    0.321048  -0.380837   0.029597   0.005914   0.024181
    3  C  1  X   -0.067677   0.312666  -0.023763   0.114148   0.077058
    4  C  1  Y    0.009584   0.023771  -0.026728   0.106809  -0.000247
    5  C  1  Z   -0.012376   0.012093  -0.016384  -0.056348   0.089239
    6  C  1  S   -1.254241   0.405166   0.469510  -0.422494  -0.195936
    7  C  1  X    0.061673  -0.319389   0.339879   0.308379   0.204673
    8  C  1  Y    0.157060   0.041044  -0.088690   0.051701  -0.010311
    9  C  1  Z    0.191359   0.016123  -0.038495  -0.065245   0.029876
   10  C  1 XX    0.047203   0.602907  -0.136161  -0.120839  -0.042171
   11  C  1 YY   -0.097901  -0.421141   0.091458   0.075033  -0.023288
   12  C  1 ZZ    0.071106  -0.392057   0.006650   0.030177   0.021611
   13  C  1 XY    0.038609  -0.046015  -0.037649  -0.016290   0.898524
   14  C  1 XZ   -0.065819  -0.003534  -0.055069   0.804051   0.419579
   15  C  1 YZ   -0.678597   0.169481   0.790057   0.037466  -0.019105
   16  C  2  S   -0.039531  -0.020673  -0.024144  -0.010276  -0.017048
   17  C  2  S   -0.373522  -0.345496   0.043041  -0.008774   0.006200
   18  C  2  X   -0.087302  -0.298495   0.027198   0.127074   0.026081
   19  C  2  Y    0.004834  -0.016966  -0.017480   0.088380   0.048681
   20  C  2  Z   -0.005537   0.033554  -0.004491   0.004749   0.103748
   21  C  2  S    1.311744   0.274948   0.372757   0.429659   0.366976
   22  C  2  X    0.061435   0.317228  -0.345668   0.300597   0.108927
   23  C  2  Y    0.021927  -0.054326   0.039494   0.038215   0.035432
   24  C  2  Z   -0.213081  -0.013777  -0.039274   0.023192   0.038137
   25  C  2 XX    0.004553   0.599757  -0.132550   0.235126   0.090454
   26  C  2 YY   -0.012687  -0.381345   0.038535  -0.143196  -0.013846
   27  C  2 ZZ   -0.032870  -0.423355   0.059025  -0.075475  -0.129437
   28  C  2 XY   -0.137023  -0.062977   0.015319  -0.413232   0.803947
   29  C  2 XZ    0.023651  -0.111259   0.051622   0.871413  -0.005361
   30  C  2 YZ   -0.736681  -0.088454  -0.745932   0.023219  -0.099387
   31  H  3  S   -0.298460  -0.036024  -0.335908   0.445650  -0.357958
   32  H  3  S   -0.102191  -0.017619  -0.049508  -0.156257   0.120018
   33  H  4  S   -0.499157   0.073976  -0.388729  -0.388101   0.187392
   34  H  4  S   -0.147875  -0.065105  -0.049489   0.198369  -0.115239
   35  H  5  S    0.313747  -0.095756  -0.285933  -0.295161  -0.479847
   36  H  5  S    0.040745  -0.011802  -0.086027   0.087437   0.159626
   37  H  6  S    0.469151   0.027338  -0.491497   0.202518   0.401981
   38  H  6  S    0.187927  -0.083091  -0.042523  -0.117723  -0.203420

                     36         37         38
                    2.7811     4.2391     4.3813
                     A          A          A   
    1  C  1  S   -0.080900  -0.327337  -0.334353
    2  C  1  S    0.173778   2.157815   2.147159
    3  C  1  X   -0.599313  -0.111255   0.279504
    4  C  1  Y    0.022398   0.006630   0.005631
    5  C  1  Z    0.036592   0.003465  -0.014775
    6  C  1  S    2.031328   0.998527   1.667612
    7  C  1  X   -1.196410   0.172837  -0.143938
    8  C  1  Y   -0.020384  -0.025872  -0.038149
    9  C  1  Z    0.030435  -0.005153  -0.002080
   10  C  1 XX    1.040288  -1.199310  -1.694130
   11  C  1 YY   -0.563571  -1.280328  -1.277897
   12  C  1 ZZ   -0.564112  -1.278365  -1.278462
   13  C  1 XY    0.111794  -0.012492  -0.012410
   14  C  1 XZ    0.089970  -0.015209   0.004416
   15  C  1 YZ    0.016747  -0.035499   0.000566
   16  C  2  S    0.079139  -0.337641   0.324063
   17  C  2  S   -0.166725   2.221967  -2.079711
   18  C  2  X   -0.603394   0.101294   0.285103
   19  C  2  Y    0.023629   0.008116  -0.005186
   20  C  2  Z    0.027991   0.002476  -0.013473
   21  C  2  S   -2.023795   1.056989  -1.629461
   22  C  2  X   -1.200645  -0.153668  -0.149420
   23  C  2  Y   -0.029911  -0.003574   0.017391
   24  C  2  Z    0.064176  -0.040882   0.026215
   25  C  2 XX   -1.018345  -1.245180   1.652692
   26  C  2 YY    0.544130  -1.320577   1.239992
   27  C  2 ZZ    0.549469  -1.317189   1.236771
   28  C  2 XY   -0.043260  -0.016519   0.019812
   29  C  2 XZ    0.215921  -0.001345  -0.033476
   30  C  2 YZ    0.012415   0.033859   0.004068
   31  H  3  S    0.097602   0.155446  -0.111842
   32  H  3  S   -0.122735  -0.350206   0.300508
   33  H  4  S   -0.061070   0.125820  -0.068336
   34  H  4  S    0.002352  -0.356179   0.259822
   35  H  5  S   -0.155092   0.150314   0.121372
   36  H  5  S    0.149328  -0.346311  -0.299790
   37  H  6  S    0.088251   0.134373   0.080329
   38  H  6  S   -0.019927  -0.356463  -0.292310
 ...... END OF ROHF CALCULATION ......
 STEP CPU TIME =     5.15 TOTAL CPU TIME =          5.2 (      0.1 MIN)
 TOTAL WALL CLOCK TIME=          5.3 SECONDS, CPU UTILIZATION IS    97.81%

     ---------------------------------------------------------------------
     PROPERTIES FOR THE BHHLYP   DFT FUNCTIONAL (ROHF TYPE) DENSITY MATRIX
     ---------------------------------------------------------------------

          -----------------
          ENERGY COMPONENTS
          -----------------

         WAVEFUNCTION NORMALIZATION =       1.0000000000

                ONE ELECTRON ENERGY =    -168.1865069337
                TWO ELECTRON ENERGY =      57.3952480451
           NUCLEAR REPULSION ENERGY =      32.3646159064
                                      ------------------
                       TOTAL ENERGY =     -78.4266429822

 ELECTRON-ELECTRON POTENTIAL ENERGY =      57.3952480451
  NUCLEUS-ELECTRON POTENTIAL ENERGY =    -246.0850786306
   NUCLEUS-NUCLEUS POTENTIAL ENERGY =      32.3646159064
                                      ------------------
             TOTAL POTENTIAL ENERGY =    -156.3252146791
               TOTAL KINETIC ENERGY =      77.8985716969
                 VIRIAL RATIO (V/T) =       2.0067789598

          ---------------------------------------
          MULLIKEN AND LOWDIN POPULATION ANALYSES
          ---------------------------------------

     ATOMIC MULLIKEN POPULATION IN EACH MOLECULAR ORBITAL

                      1          2          3          4          5

                  2.000000   2.000000   2.000000   2.000000   2.000000

    1             0.058037   1.941130   0.882136   0.646655   0.620960
    2             1.941051   0.058093   0.871435   0.645982   0.769167
    3             0.000414   0.000002   0.060434   0.194901   0.370946
    4             0.000416   0.000001   0.059118   0.154699   0.000184
    5             0.000039   0.000372   0.060231   0.195607   0.211963
    6             0.000043   0.000402   0.066645   0.162155   0.026780

                      6          7          8          9

                  2.000000   2.000000   1.000000   1.000000

    1             0.867019   0.382171   0.485822   0.451231
    2             0.272255   0.839778   0.451411   0.486234
    3             0.069491   0.101228   0.017145   0.012240
    4             0.102540   0.488681   0.015829   0.018119
    5             0.323486   0.006630   0.011004   0.016335
    6             0.365209   0.181512   0.018789   0.015839

     ATOMIC SPIN POPULATION (ALPHA MINUS BETA)
       ATOM         MULL.POP.                    LOW.POP.
    1 C             0.937053                     0.928456
    2 C             0.937646                     0.928593
    3 H             0.029385                     0.033385
    4 H             0.033948                     0.038898
    5 H             0.027339                     0.030452
    6 H             0.034629                     0.040216

               ----- POPULATIONS IN EACH AO -----
                             MULLIKEN      LOWDIN
              1  C  1  S      1.99352     1.98048
              2  C  1  S      0.68577     0.36592
              3  C  1  X      0.73983     0.65432
              4  C  1  Y      0.64423     0.59357
              5  C  1  Z      0.63641     0.58921
              6  C  1  S      0.60767     0.34538
              7  C  1  X      0.22569     0.38237
              8  C  1  Y      0.38371     0.46066
              9  C  1  Z      0.38835     0.45913
             10  C  1 XX      0.01591     0.18407
             11  C  1 YY     -0.00466     0.13415
             12  C  1 ZZ     -0.00721     0.13048
             13  C  1 XY      0.01071     0.02242
             14  C  1 XZ      0.01035     0.02167
             15  C  1 YZ      0.00488     0.00692
             16  C  2  S      1.99352     1.98039
             17  C  2  S      0.68419     0.36565
             18  C  2  X      0.73596     0.65120
             19  C  2  Y      0.63944     0.58996
             20  C  2  Z      0.63588     0.58749
             21  C  2  S      0.61529     0.34828
             22  C  2  X      0.22678     0.38302
             23  C  2  Y      0.38575     0.46062
             24  C  2  Z      0.38896     0.46166
             25  C  2 XX      0.01498     0.18238
             26  C  2 YY     -0.00515     0.13371
             27  C  2 ZZ     -0.00599     0.13215
             28  C  2 XY      0.01069     0.02228
             29  C  2 XZ      0.01041     0.02187
             30  C  2 YZ      0.00470     0.00660
             31  H  3  S      0.52123     0.47589
             32  H  3  S      0.30557     0.35530
             33  H  4  S      0.51061     0.47164
             34  H  4  S      0.32898     0.36974
             35  H  5  S      0.52031     0.47496
             36  H  5  S      0.30536     0.35525
             37  H  6  S      0.51923     0.47808
             38  H  6  S      0.31815     0.36112

          ----- MULLIKEN ATOMIC OVERLAP POPULATIONS -----
          (OFF-DIAGONAL ELEMENTS NEED TO BE MULTIPLIED BY 2)

             1           2           3           4           5

    1    5.2590223
    2    0.4090326   5.2599777
    3   -0.0406716   0.3785166   0.5323137
    4   -0.0498199   0.3770161  -0.0453126   0.5545248
    5    0.3795136  -0.0380109   0.0011392   0.0016946   0.5280830
    6    0.3780856  -0.0511243   0.0008136   0.0014830  -0.0467518

             6

    6    0.5548703

          TOTAL MULLIKEN AND LOWDIN ATOMIC POPULATIONS
       ATOM         MULL.POP.    CHARGE          LOW.POP.     CHARGE
    1 C             6.335163   -0.335163         6.330746   -0.330746
    2 C             6.335408   -0.335408         6.327270   -0.327270
    3 H             0.826799    0.173201         0.831186    0.168814
    4 H             0.839586    0.160414         0.841378    0.158622
    5 H             0.825668    0.174332         0.830214    0.169786
    6 H             0.837377    0.162623         0.839206    0.160794

          -------------------------------
          BOND ORDER AND VALENCE ANALYSIS     BOND ORDER THRESHOLD=0.050
          -------------------------------

                   BOND                       BOND                       BOND
  ATOM PAIR DIST  ORDER      ATOM PAIR DIST  ORDER      ATOM PAIR DIST  ORDER
    1   2  1.395  1.116        1   5  1.081  0.926        1   6  1.093  0.925
    2   3  1.079  0.924        2   4  1.117  0.927

                       TOTAL       BONDED        FREE
      ATOM            VALENCE     VALENCE     VALENCE
    1 C                 3.861       2.996       0.865
    2 C                 3.861       2.994       0.867
    3 H                 0.929       0.928       0.001
    4 H                 0.933       0.932       0.001
    5 H                 0.930       0.929       0.001
    6 H                 0.929       0.928       0.001

          -----------------------------------------
          ATOMIC SPIN DENSITY AT THE NUCLEUS (A.U.)
          -----------------------------------------
                            SPIN DENS    ALPHA DENS     BETA DENS
    1  C            6.0     0.0059226      58.90712      58.90120
    2  C            6.0     0.0051596      58.90399      58.89883
    3  H            1.0     0.0171002       0.21715       0.20005
    4  H            1.0     0.0191955       0.21120       0.19200
    5  H            1.0     0.0159264       0.21597       0.20005
    6  H            1.0     0.0199454       0.21716       0.19721

          ---------------------
          ELECTROSTATIC MOMENTS
          ---------------------

 POINT   1           X           Y           Z (BOHR)    CHARGE
                -1.317118   -0.032747    0.039577        0.00 (A.U.)
         DX          DY          DZ         /D/  (DEBYE)
     0.020534   -0.149553   -0.039067    0.155930
 ...... END OF PROPERTY EVALUATION ......
 STEP CPU TIME =     0.00 TOTAL CPU TIME =          5.2 (      0.1 MIN)
 TOTAL WALL CLOCK TIME=          5.3 SECONDS, CPU UTILIZATION IS    97.81%

 -----------------------------------------------------------------------
                    SFDFT CALCULATION FOR SCFTYP=ROHF
                          CODED BY NORIYUKI MINEZAWA
 -----------------------------------------------------------------------
  
 -TDDFT RUNTIME PARAMETERS-
    TRIPLET  = F
    NONEQ    = T
    NSTATE   =                    3
    IROOT    =                    1
    NTRIAL   =                    5
    MAXVEC   =                   50
    ILENG    =                  200
    MAXGRD   =                29159
    NRAD     =                   48
    NLEB     =                  110
 GAS PHASE COMPUTATION
  
 FOR AN EULER-MACLAURIN QUADRATURE USING  48 RADIAL POINTS:
 SMALLEST GAUSSIAN PRIMITIVE EXPONENT=        0.1612777588 OF TYPE -S-
 ON ATOM NUMBER   3 HAS RADIAL NORMALIZATION=  1.000000
  LARGEST GAUSSIAN PRIMITIVE EXPONENT=     3047.5248800000 OF TYPE -S-
 ON ATOM NUMBER   1 HAS RADIAL NORMALIZATION=  1.000000
  

          -----------------------------------------------
          SF-DFT INPUT PARAMETERS (EXTRACTED FROM $TDDFT)
          -----------------------------------------------

     NSTATE=       3  IROOT=       1 MAXVEC=      50
     NTRIAL=       5 CNVTOL=  1.00E-07

     ********** NOTE: THE CURRENT STATUS OF SFDFT **********

     (1) UHF AND ROHF REFERENCES ARE AVAILABLE.
     (2) COLLINEAR APPROXIMATION FOR XC FUNCTIONALS.
     (3) NEITHER LC NOR CAMB3LYP IS SUPPORTED.
     (4) INCORRECT ANALYTIC GRADIENT FOR META-GGA.
     (5) SOLVENT MODELS (EFP1 AND/OR C-PCM) ARE AVAILABLE.

     *******************************************************

 MEMORY REQUIRED FOR SFDFT   ITERATIONS IS    193756 WORDS.


 STATE      ITERATION      ENERGY         RESIDUE NORM
   1            1      -78.4001535776     0.05076130
   2            1      -78.3989454695     0.06061097
   3            1      -78.2952214240     0.09361138

 STATE      ITERATION      ENERGY         RESIDUE NORM
   1            2      -78.4020939670     0.00812558
   2            2      -78.4019492189     0.00390764
   3            2      -78.3141771128     0.01637064

 STATE      ITERATION      ENERGY         RESIDUE NORM
   1            3      -78.4021571336     0.00095344
   2            3      -78.4019619644     0.00041563
   3            3      -78.3146257278     0.00227448

 STATE      ITERATION      ENERGY         RESIDUE NORM
   1            4      -78.4021583174     0.00017892
   2            4      -78.4019621975     0.00007741
   3            4      -78.3146320030     0.00030488

 STATE      ITERATION      ENERGY         RESIDUE NORM
   1            5      -78.4021583452     0.00002009
   2            5      -78.4019622023     0.00000961
   3            5      -78.3146322031     0.00010545

 STATE      ITERATION      ENERGY         RESIDUE NORM
   1            6      -78.4021583455     0.00000164
   2            6      -78.4019622024     0.00000110
   3            6      -78.3146322897     0.00014633

 STATE      ITERATION      ENERGY         RESIDUE NORM
   1            7      -78.4021583455     0.00000022
   2            7      -78.4019622024     0.00000010
   3            7      -78.3146323646     0.00004136

 STATE      ITERATION      ENERGY         RESIDUE NORM
   1            8      -78.4021583455     0.00000004
   2            8      -78.4019622024     0.00000001
   3            8      -78.3146323665     0.00000638

 STATE      ITERATION      ENERGY         RESIDUE NORM
   1            9      -78.4021583455     0.00000000
   2            9      -78.4019622024     0.00000000
   3            9      -78.3146323665     0.00000117

 STATE      ITERATION      ENERGY         RESIDUE NORM
   1           10      -78.4021583455     0.00000000
   2           10      -78.4019622024     0.00000000
   3           10      -78.3146323665     0.00000013

 STATE      ITERATION      ENERGY         RESIDUE NORM
   1           11      -78.4021583455     0.00000000
   2           11      -78.4019622024     0.00000000
   3           11      -78.3146323665     0.00000001
  
   -----------------------------------  
     SPIN-FLIP CALCULATION CONVERGED
   -----------------------------------  
 NUMBER OF USED VECTORS / MAX =  33 / 150
 NUMBER OF ITERATIONS   / MAX =  11 / 100
 NUMBER OF SINGLE EXCITATIONS =   279
 NUMBER OF ATOMIC ORBITALS    =  38

     -----------------------------------
     ALPHA -> BETA SPIN-FLIP EXCITATIONS
     -----------------------------------

 STATE #   1  ENERGY =    0.666261 EV
 SYMMETRY OF STATE   =    A   
 S-SQUARED           =    0.1132
        DRF    COEF       OCC(A)    VIR(B)
        ---    ----       ------    ------
          8  0.188201         8  ->     8
          9 -0.731974         9  ->     8
         17 -0.637039         8  ->     9
         18  0.137977         9  ->     9

 STATE #   2  ENERGY =    0.671598 EV
 SYMMETRY OF STATE   =    A   
 S-SQUARED           =    1.8930
        DRF    COEF       OCC(A)    VIR(B)
        ---    ----       ------    ------
          8 -0.681479         8  ->     8
          9 -0.173702         9  ->     8
         17 -0.151140         8  ->     9
         18 -0.693176         9  ->     9

 STATE #   3  ENERGY =    3.047964 EV
 SYMMETRY OF STATE   =    A   
 S-SQUARED           =    0.0646
        DRF    COEF       OCC(A)    VIR(B)
        ---    ----       ------    ------
          5 -0.056410         5  ->     8
          6 -0.068235         6  ->     8
          7 -0.127152         7  ->     8
          8  0.678738         8  ->     8
          9  0.100144         9  ->     8
         15  0.144505         6  ->     9
         17 -0.062159         8  ->     9
         18 -0.679103         9  ->     9
         45 -0.064842         9  ->    12
         53  0.056149         8  ->    13
         89 -0.050676         8  ->    17
         90 -0.052756         9  ->    17

          ----------------------------
          SUMMARY OF SPIN-FLIP RESULTS
          ----------------------------

   STATE             ENERGY     EXCITATION     S-SQUARED

 0 NEGATIVE ROOT(S) FOUND.
   0  A          -78.4266429822    0.000               (REFERENCE STATE)
   1  A          -78.4021583455    0.666        0.1132
   2  A          -78.4019622024    0.672        1.8930
   3  A          -78.3146323665    3.048        0.0646
  
 SELECTING EXCITED STATE IROOT=   1 AT E=      -78.4021583455
 AS THE STATE OF INTEREST.

 ..... DONE WITH SFDFT   EXCITATION ENERGIES .....
 STEP CPU TIME =     0.08 TOTAL CPU TIME =          5.3 (      0.1 MIN)
 TOTAL WALL CLOCK TIME=          5.4 SECONDS, CPU UTILIZATION IS    97.83%

 -----------------------------------------------------------------------
                   SF-DFT ENERGY GRADIENT CALCULATION
 -----------------------------------------------------------------------

    -------------------------
       START Z-VECTOR LOOP
    -------------------------
 INITIAL ERROR =    9.070E-04 / 1.000E-10
 ITER# 1 ERROR =    1.216E-04 / 1.000E-10
 ITER# 2 ERROR =    6.220E-06 / 1.000E-10
 ITER# 3 ERROR =    2.762E-07 / 1.000E-10
 ITER# 4 ERROR =    3.158E-08 / 1.000E-10
 ITER# 5 ERROR =    3.786E-09 / 1.000E-10
 ITER# 6 ERROR =    2.270E-10 / 1.000E-10
 ITER# 7 ERROR =    1.043E-11 / 1.000E-10
    -------------------------
        Z-VECTOR CONVERGED          
    -------------------------
 ..... DONE WITH SF-DFT EXCITED STATE RESPONSE AND DENSITY MATRIX .....
 STEP CPU TIME =     4.12 TOTAL CPU TIME =          9.4 (      0.2 MIN)
 TOTAL WALL CLOCK TIME=          9.5 SECONDS, CPU UTILIZATION IS    98.76%

     ------------------------------------------
     PROPERTIES FOR THE BHHLYP   DFT FUNCTIONAL
      USING THE RELAXED DENSITY OF EXCITED STATE    1
     ------------------------------------------

          -----------------
          ENERGY COMPONENTS
          -----------------

         WAVEFUNCTION NORMALIZATION =       1.0000000000

                ONE ELECTRON ENERGY =    -168.1388802568
                TWO ELECTRON ENERGY =      57.3721060049
           NUCLEAR REPULSION ENERGY =      32.3646159064
                                      ------------------
                       TOTAL ENERGY =     -78.4021583455

 ELECTRON-ELECTRON POTENTIAL ENERGY =      57.3721060049
  NUCLEUS-ELECTRON POTENTIAL ENERGY =    -245.9964851605
   NUCLEUS-NUCLEUS POTENTIAL ENERGY =      32.3646159064
                                      ------------------
             TOTAL POTENTIAL ENERGY =    -156.2597632492
               TOTAL KINETIC ENERGY =      77.8576049037
                 VIRIAL RATIO (V/T) =       2.0069942229

          ---------------------------------------
          MULLIKEN AND LOWDIN POPULATION ANALYSES
          ---------------------------------------

     ATOMIC MULLIKEN POPULATION IN EACH MOLECULAR ORBITAL

                      1          2          3          4          5

                  2.000000   2.000000   2.000000   2.000000   2.000000

    1             0.058037   1.941130   0.882136   0.646655   0.620960
    2             1.941051   0.058093   0.871435   0.645982   0.769167
    3             0.000414   0.000002   0.060434   0.194901   0.370946
    4             0.000416   0.000001   0.059118   0.154699   0.000184
    5             0.000039   0.000372   0.060231   0.195607   0.211963
    6             0.000043   0.000402   0.066645   0.162155   0.026780

                      6          7          8          9

                  2.000000   2.000000   1.000000   1.000000

    1             0.867019   0.382171   0.485822   0.451231
    2             0.272255   0.839778   0.451411   0.486234
    3             0.069491   0.101228   0.017145   0.012240
    4             0.102540   0.488681   0.015829   0.018119
    5             0.323486   0.006630   0.011004   0.016335
    6             0.365209   0.181512   0.018789   0.015839

     ATOMIC SPIN POPULATION (ALPHA MINUS BETA)
       ATOM         MULL.POP.                    LOW.POP.
    1 C            -0.407916                    -0.387586
    2 C             0.417131                     0.395728
    3 H            -0.014943                    -0.016391
    4 H            -0.017949                    -0.019739
    5 H             0.010298                     0.011910
    6 H             0.013380                     0.016079

               ----- POPULATIONS IN EACH AO -----
                             MULLIKEN      LOWDIN
              1  C  1  S      1.99356     1.98054
              2  C  1  S      0.69235     0.36836
              3  C  1  X      0.74493     0.65826
              4  C  1  Y      0.63881     0.58992
              5  C  1  Z      0.61776     0.57233
              6  C  1  S      0.60486     0.34460
              7  C  1  X      0.22443     0.38087
              8  C  1  Y      0.39446     0.47181
              9  C  1  Z      0.40625     0.47216
             10  C  1 XX      0.01510     0.18424
             11  C  1 YY     -0.00457     0.13480
             12  C  1 ZZ     -0.00699     0.13121
             13  C  1 XY      0.01080     0.02286
             14  C  1 XZ      0.01026     0.02128
             15  C  1 YZ      0.00491     0.00700
             16  C  2  S      1.99354     1.98040
             17  C  2  S      0.68688     0.36659
             18  C  2  X      0.73721     0.65224
             19  C  2  Y      0.64001     0.59108
             20  C  2  Z      0.62586     0.57771
             21  C  2  S      0.61355     0.34774
             22  C  2  X      0.22646     0.38197
             23  C  2  Y      0.38727     0.46383
             24  C  2  Z      0.39641     0.46573
             25  C  2 XX      0.01463     0.18259
             26  C  2 YY     -0.00512     0.13390
             27  C  2 ZZ     -0.00592     0.13238
             28  C  2 XY      0.01088     0.02296
             29  C  2 XZ      0.01051     0.02179
             30  C  2 YZ      0.00471     0.00662
             31  H  3  S      0.52068     0.47537
             32  H  3  S      0.30346     0.35416
             33  H  4  S      0.50960     0.47046
             34  H  4  S      0.32733     0.36892
             35  H  5  S      0.51915     0.47363
             36  H  5  S      0.30198     0.35287
             37  H  6  S      0.51868     0.47760
             38  H  6  S      0.31535     0.35918

          ----- MULLIKEN ATOMIC OVERLAP POPULATIONS -----
          (OFF-DIAGONAL ELEMENTS NEED TO BE MULTIPLIED BY 2)

             1           2           3           4           5

    1    5.2680251
    2    0.4239764   5.2579863
    3   -0.0432873   0.3740160   0.5402987
    4   -0.0518117   0.3713374  -0.0486073   0.5627027
    5    0.3759315  -0.0378691   0.0016002   0.0010950   0.5283343
    6    0.3740772  -0.0525768   0.0001188   0.0022180  -0.0479674

             6

    6    0.5581516

          TOTAL MULLIKEN AND LOWDIN ATOMIC POPULATIONS
       ATOM         MULL.POP.    CHARGE          LOW.POP.     CHARGE
    1 C             6.346911   -0.346911         6.340246   -0.340246
    2 C             6.336870   -0.336870         6.327548   -0.327548
    3 H             0.824139    0.175861         0.829535    0.170465
    4 H             0.836934    0.163066         0.839385    0.160615
    5 H             0.821124    0.178876         0.826502    0.173498
    6 H             0.834021    0.165979         0.836785    0.163215

          -------------------------------
          BOND ORDER AND VALENCE ANALYSIS     BOND ORDER THRESHOLD=0.050
          -------------------------------

                   BOND                       BOND                       BOND
  ATOM PAIR DIST  ORDER      ATOM PAIR DIST  ORDER      ATOM PAIR DIST  ORDER
    1   2  1.395  1.142        1   5  1.081  0.921        1   6  1.093  0.920
    2   3  1.079  0.915        2   4  1.117  0.916

                       TOTAL       BONDED        FREE
      ATOM            VALENCE     VALENCE     VALENCE
    1 C                 3.857       2.965       0.892
    2 C                 3.863       2.954       0.909
    3 H                 0.926       0.896       0.030
    4 H                 0.930       0.896       0.035
    5 H                 0.928       0.903       0.025
    6 H                 0.927       0.896       0.031

          -----------------------------------------
          ATOMIC SPIN DENSITY AT THE NUCLEUS (A.U.)
          -----------------------------------------
                            SPIN DENS    ALPHA DENS     BETA DENS
    1  C            6.0    -0.0050854      58.91160      58.91668
    2  C            6.0     0.0004472      58.90472      58.90428
    3  H            1.0    -0.0082759       0.20431       0.21258
    4  H            1.0    -0.0095825       0.19645       0.20603
    5  H            1.0     0.0062428       0.21065       0.20441
    6  H            1.0     0.0079762       0.21100       0.20302

          ---------------------
          ELECTROSTATIC MOMENTS
          ---------------------

 POINT   1           X           Y           Z (BOHR)    CHARGE
                -1.317118   -0.032747    0.039577        0.00 (A.U.)
         DX          DY          DZ         /D/  (DEBYE)
     0.006565   -0.150866   -0.042919    0.156990
 ...... END OF PROPERTY EVALUATION ......
 STEP CPU TIME =     0.00 TOTAL CPU TIME =          9.4 (      0.2 MIN)
 TOTAL WALL CLOCK TIME=          9.6 SECONDS, CPU UTILIZATION IS    98.76%

 BEGINNING ONE ELECTRON GRADIENT...
 ..... END OF 1-ELECTRON GRADIENT ......
 STEP CPU TIME =     0.00 TOTAL CPU TIME =          9.4 (      0.2 MIN)
 TOTAL WALL CLOCK TIME=          9.6 SECONDS, CPU UTILIZATION IS    98.76%

          ----------------------
          GRADIENT OF THE ENERGY
          ----------------------
 MEMORY FOR GRID POINT CONTRIBUTIONS TO THE SF-DFT GRADIENT=   2887363 WORDS.
 STEP CPU TIME =     5.39 TOTAL CPU TIME =         14.8 (      0.2 MIN)
 TOTAL WALL CLOCK TIME=         15.6 SECONDS, CPU UTILIZATION IS    95.10%

 THE MINIMUM MEMORY REQUIRED FOR THIS RUN IS      84843 WORDS.
 USING    1060363 WORDS FOR 2E- DERIVATIVE INTEGRAL CONTRIBUTIONS.
 THE COARSE/FINE SCHWARZ SCREENINGS SKIPPED           25/         125 BLOCKS.
 THE NUMBER OF GRADIENT INTEGRAL BLOCKS COMPUTED WAS      9032
 ...... END OF 2-ELECTRON GRADIENT ......
 STEP CPU TIME =     0.07 TOTAL CPU TIME =         14.9 (      0.2 MIN)
 TOTAL WALL CLOCK TIME=         15.7 SECONDS, CPU UTILIZATION IS    95.03%

 BEGINNING GEOMETRY SEARCH POINT NSERCH=   0 ...

 COORDINATES OF ALL ATOMS ARE (ANGS)
   ATOM   CHARGE       X              Y              Z
 ------------------------------------------------------------
 C           6.0   0.0000000000   0.0000000000   0.0000000000
 C           6.0  -1.3938780000  -0.0202340000   0.0570830000
 H           1.0  -2.0240580000  -0.6969520000   0.6131600000
 H           1.0  -1.9929020000   0.5958710000  -0.6571770000
 H           1.0   0.7030370000   0.5766660000   0.5841850000
 H           1.0   0.5247810000  -0.7166390000  -0.6373440000

          ********************
          1 ELECTRON INTEGRALS
          ********************
 ...... END OF ONE-ELECTRON INTEGRALS ......
 STEP CPU TIME =     0.00 TOTAL CPU TIME =         14.9 (      0.2 MIN)
 TOTAL WALL CLOCK TIME=         15.7 SECONDS, CPU UTILIZATION IS    95.03%

          --------------------
          2 ELECTRON INTEGRALS
          --------------------

 THE -PK- OPTION IS OFF, THE INTEGRALS ARE NOT IN SUPERMATRIX FORM.
 STORING   15000 INTEGRALS/RECORD ON DISK, USING 12 BYTES/INTEGRAL.
 TWO ELECTRON INTEGRAL EVALUATION REQUIRES   90532 WORDS OF MEMORY.
 SCHWARZ INEQUALITY OVERHEAD:       741 INTEGRALS, T=        0.00
 II,JST,KST,LST =  1  1  1  1 NREC =         1 INTLOC =    1
 II,JST,KST,LST =  2  1  1  1 NREC =         1 INTLOC =    2
 II,JST,KST,LST =  3  1  1  1 NREC =         1 INTLOC =   34
 II,JST,KST,LST =  4  1  1  1 NREC =         1 INTLOC =  214
 II,JST,KST,LST =  5  1  1  1 NREC =         1 INTLOC = 1189
 II,JST,KST,LST =  6  1  1  1 NREC =         1 INTLOC = 3223
 II,JST,KST,LST =  7  1  1  1 NREC =         2 INTLOC =  969
 II,JST,KST,LST =  8  1  1  1 NREC =         3 INTLOC = 8213
 II,JST,KST,LST =  9  1  1  1 NREC =         7 INTLOC = 6131
 II,JST,KST,LST = 10  1  1  1 NREC =         8 INTLOC = 6037
 II,JST,KST,LST = 11  1  1  1 NREC =         9 INTLOC = 7437
 II,JST,KST,LST = 12  1  1  1 NREC =        10 INTLOC =10419
 II,JST,KST,LST = 13  1  1  1 NREC =        12 INTLOC =   87
 II,JST,KST,LST = 14  1  1  1 NREC =        13 INTLOC = 6517
 II,JST,KST,LST = 15  1  1  1 NREC =        14 INTLOC =14863
 II,JST,KST,LST = 16  1  1  1 NREC =        16 INTLOC =10188
 SCHWARZ INEQUALITY TEST SKIPPED          25 INTEGRAL BLOCKS.
 TOTAL NUMBER OF NONZERO TWO-ELECTRON INTEGRALS =              262642
         18 INTEGRAL RECORDS WERE STORED ON DISK FILE  8.
  ...... END OF TWO-ELECTRON INTEGRALS .....
 STEP CPU TIME =     0.02 TOTAL CPU TIME =         14.9 (      0.2 MIN)
 TOTAL WALL CLOCK TIME=         15.7 SECONDS, CPU UTILIZATION IS    95.02%

 -----------------------------------------------------------------------
                    SFDFT CALCULATION FOR SCFTYP=ROHF
                          CODED BY NORIYUKI MINEZAWA
 -----------------------------------------------------------------------
  
 -TDDFT RUNTIME PARAMETERS-
    TRIPLET  = F
    NONEQ    = T
    NSTATE   =                    3
    IROOT    =                    3
    NTRIAL   =                    5
    MAXVEC   =                   50
    ILENG    =                  200
    MAXGRD   =                29159
    NRAD     =                   48
    NLEB     =                  110
 GAS PHASE COMPUTATION
  
 FOR AN EULER-MACLAURIN QUADRATURE USING  48 RADIAL POINTS:
 SMALLEST GAUSSIAN PRIMITIVE EXPONENT=        0.1612777588 OF TYPE -S-
 ON ATOM NUMBER   3 HAS RADIAL NORMALIZATION=  1.000000
  LARGEST GAUSSIAN PRIMITIVE EXPONENT=     3047.5248800000 OF TYPE -S-
 ON ATOM NUMBER   1 HAS RADIAL NORMALIZATION=  1.000000
  

          -----------------------------------------------
          SF-DFT INPUT PARAMETERS (EXTRACTED FROM $TDDFT)
          -----------------------------------------------

     NSTATE=       3  IROOT=       3 MAXVEC=      50
     NTRIAL=       5 CNVTOL=  1.00E-07

     ********** NOTE: THE CURRENT STATUS OF SFDFT **********

     (1) UHF AND ROHF REFERENCES ARE AVAILABLE.
     (2) COLLINEAR APPROXIMATION FOR XC FUNCTIONALS.
     (3) NEITHER LC NOR CAMB3LYP IS SUPPORTED.
     (4) INCORRECT ANALYTIC GRADIENT FOR META-GGA.
     (5) SOLVENT MODELS (EFP1 AND/OR C-PCM) ARE AVAILABLE.

     *******************************************************

 MEMORY REQUIRED FOR SFDFT   ITERATIONS IS    193756 WORDS.


 STATE      ITERATION      ENERGY         RESIDUE NORM
   1            1      -78.4001535776     0.05076130
   2            1      -78.3989454695     0.06061097
   3            1      -78.2952214240     0.09361138

 STATE      ITERATION      ENERGY         RESIDUE NORM
   1            2      -78.4020939670     0.00812558
   2            2      -78.4019492189     0.00390764
   3            2      -78.3141771128     0.01637064

 STATE      ITERATION      ENERGY         RESIDUE NORM
   1            3      -78.4021571336     0.00095344
   2            3      -78.4019619644     0.00041563
   3            3      -78.3146257278     0.00227448

 STATE      ITERATION      ENERGY         RESIDUE NORM
   1            4      -78.4021583174     0.00017892
   2            4      -78.4019621975     0.00007741
   3            4      -78.3146320030     0.00030488

 STATE      ITERATION      ENERGY         RESIDUE NORM
   1            5      -78.4021583452     0.00002009
   2            5      -78.4019622023     0.00000961
   3            5      -78.3146322031     0.00010545

 STATE      ITERATION      ENERGY         RESIDUE NORM
   1            6      -78.4021583455     0.00000164
   2            6      -78.4019622024     0.00000110
   3            6      -78.3146322897     0.00014633

 STATE      ITERATION      ENERGY         RESIDUE NORM
   1            7      -78.4021583455     0.00000022
   2            7      -78.4019622024     0.00000010
   3            7      -78.3146323646     0.00004136

 STATE      ITERATION      ENERGY         RESIDUE NORM
   1            8      -78.4021583455     0.00000004
   2            8      -78.4019622024     0.00000001
   3            8      -78.3146323665     0.00000638

 STATE      ITERATION      ENERGY         RESIDUE NORM
   1            9      -78.4021583455     0.00000000
   2            9      -78.4019622024     0.00000000
   3            9      -78.3146323665     0.00000117

 STATE      ITERATION      ENERGY         RESIDUE NORM
   1           10      -78.4021583455     0.00000000
   2           10      -78.4019622024     0.00000000
   3           10      -78.3146323665     0.00000013

 STATE      ITERATION      ENERGY         RESIDUE NORM
   1           11      -78.4021583455     0.00000000
   2           11      -78.4019622024     0.00000000
   3           11      -78.3146323665     0.00000001
  
   -----------------------------------  
     SPIN-FLIP CALCULATION CONVERGED
   -----------------------------------  
 NUMBER OF USED VECTORS / MAX =  33 / 150
 NUMBER OF ITERATIONS   / MAX =  11 / 100
 NUMBER OF SINGLE EXCITATIONS =   279
 NUMBER OF ATOMIC ORBITALS    =  38

     -----------------------------------
     ALPHA -> BETA SPIN-FLIP EXCITATIONS
     -----------------------------------

 STATE #   1  ENERGY =    0.666261 EV
[...]
                     A          A          A          A          A   
    1  C  1  S    0.993975  -0.013394   0.155531   0.104330  -0.015676
    2  C  1  S    0.040826  -0.000589  -0.299799  -0.203946   0.041703
    3  C  1  X   -0.000469   0.000468   0.106351  -0.129054  -0.287071
    4  C  1  Y   -0.000872   0.000080   0.087948   0.068303  -0.004343
    5  C  1  Z    0.000454  -0.000066  -0.042945  -0.080993  -0.172081
    6  C  1  S   -0.015165   0.002310  -0.242324  -0.239393  -0.002439
    7  C  1  X    0.001566  -0.001579   0.012573  -0.037369  -0.088339
    8  C  1  Y    0.002460   0.000256   0.033111   0.040334   0.001957
    9  C  1  Z   -0.001614   0.000014  -0.019948  -0.036977  -0.068893
   10  C  1 XX   -0.006106  -0.000311  -0.006859   0.010859   0.012106
   11  C  1 YY   -0.006474  -0.000030  -0.000394  -0.004885  -0.000717
   12  C  1 ZZ   -0.006421   0.000067   0.006602  -0.005783  -0.016573
   13  C  1 XY    0.000049  -0.000100  -0.005223   0.004790   0.003099
   14  C  1 XZ    0.000078   0.000037  -0.003585  -0.010708  -0.007106
   15  C  1 YZ    0.000016   0.000023  -0.001949  -0.001547   0.005908
   16  C  2  S    0.013030   0.993768   0.148469  -0.129859  -0.003389
   17  C  2  S    0.000354   0.040786  -0.281251   0.252595   0.009193
   18  C  2  X   -0.000271   0.000387  -0.111964  -0.189285   0.212961
   19  C  2  Y   -0.000099  -0.000120  -0.010634  -0.024838   0.237574
   20  C  2  Z   -0.000032  -0.000172   0.013179  -0.016209  -0.221549
   21  C  2  S    0.004674  -0.011650  -0.215992   0.296657   0.013225
   22  C  2  X    0.002431  -0.000446  -0.009953  -0.052688   0.076739
   23  C  2  Y    0.000301  -0.000043   0.006592  -0.016641   0.102906
   24  C  2  Z    0.000509   0.000432   0.001838  -0.001711  -0.095363
   25  C  2 XX   -0.000430  -0.006199  -0.014157  -0.005216   0.007661
   26  C  2 YY   -0.000210  -0.006727   0.006192   0.003262  -0.013049
   27  C  2 ZZ   -0.000168  -0.006723   0.008588   0.003033  -0.004822
   28  C  2 XY   -0.000073   0.000129  -0.002738   0.000920  -0.006507
   29  C  2 XZ    0.000145  -0.000021   0.000904   0.004147   0.000441
   30  C  2 YZ   -0.000001  -0.000150   0.007986  -0.016573   0.008959
   31  H  3  S   -0.000152  -0.000253  -0.070503   0.152161  -0.229548
   32  H  3  S   -0.000197   0.002022  -0.008389   0.072910  -0.185092
   33  H  4  S   -0.000065  -0.000202  -0.070133   0.165025   0.049761
   34  H  4  S    0.000607   0.002213  -0.015000   0.079083   0.032251
   35  H  5  S    0.000081  -0.000029  -0.090072  -0.153939  -0.165800
   36  H  5  S    0.002965   0.000346  -0.012406  -0.070730  -0.135211
   37  H  6  S    0.000155   0.000043  -0.113028  -0.102848   0.010210
   38  H  6  S    0.002730   0.000905  -0.020820  -0.046489  -0.000476

                      6          7          8          9         10
                   -0.4718    -0.4300    -0.1822    -0.0889     0.1556
                     A          A          A          A          A   
    1  C  1  S   -0.027980  -0.000763  -0.091842   0.000040   0.087677
    2  C  1  S    0.056512   0.013608   0.209440  -0.012281  -0.078201
    3  C  1  X    0.092853  -0.284833   0.123307   0.042625  -0.159877
    4  C  1  Y    0.257323   0.171108   0.365357  -0.098335   0.213325
    5  C  1  Z    0.215857   0.165022  -0.378642  -0.071253   0.027435
    6  C  1  S    0.083155  -0.037907   0.341261   0.075783  -1.692118
    7  C  1  X    0.028126  -0.113532   0.105904   0.022589  -0.282483
    8  C  1  Y    0.105244   0.099895   0.284061  -0.118360   0.768021
    9  C  1  Z    0.094839   0.072649  -0.284974  -0.065333  -0.084288
   10  C  1 XX    0.007387   0.014497  -0.011002  -0.004969   0.000197
   11  C  1 YY   -0.028604  -0.023061  -0.005222   0.010781   0.009544
   12  C  1 ZZ    0.016902   0.002354  -0.001790  -0.004790   0.011289
   13  C  1 XY   -0.008679   0.011799  -0.000403  -0.021828  -0.009032
   14  C  1 XZ    0.014560  -0.013944  -0.004956  -0.023366  -0.002135
   15  C  1 YZ   -0.006003  -0.009760  -0.002461   0.003647   0.003091
   16  C  2  S   -0.004205  -0.031040   0.022045   0.004402   0.064862
   17  C  2  S    0.013113   0.067818  -0.048776  -0.005461  -0.126749
   18  C  2  X   -0.132428   0.280846  -0.057932  -0.122763   0.050083
   19  C  2  Y    0.232753  -0.011682  -0.058243   0.396908   0.089024
   20  C  2  Z   -0.096053   0.224667   0.055695   0.416397  -0.058853
   21  C  2  S    0.007602   0.093123  -0.018366  -0.071043  -0.637230
   22  C  2  X   -0.062025   0.136575   0.003476  -0.136475   0.503319
   23  C  2  Y    0.111482  -0.021484  -0.028270   0.395449   0.217075
   24  C  2  Z   -0.051526   0.121947   0.039967   0.408405  -0.109853
   25  C  2 XX    0.002326  -0.003188  -0.005674   0.004025  -0.010209
   26  C  2 YY   -0.003380   0.000149   0.008762  -0.000707   0.012483
   27  C  2 ZZ    0.004114  -0.008675   0.002959  -0.000301   0.001912
   28  C  2 XY    0.001497   0.020627   0.019034  -0.007969   0.003235
   29  C  2 XZ    0.020501  -0.007349  -0.017436  -0.002129   0.000317
   30  C  2 YZ   -0.000819   0.000250  -0.007451  -0.001434   0.005352
   31  H  3  S   -0.104297   0.061512   0.104835  -0.015053   0.003925
   32  H  3  S   -0.085078   0.052858   0.159184  -0.012195   0.850808
   33  H  4  S    0.162843  -0.194581  -0.081254   0.010166  -0.015124
   34  H  4  S    0.133641  -0.173156  -0.101717   0.025598   0.393814
   35  H  5  S    0.189031  -0.017146  -0.086249  -0.095046  -0.004766
   36  H  5  S    0.177481  -0.010683  -0.092487  -0.169349   0.793792
   37  H  6  S   -0.181859  -0.189860  -0.051063   0.130234   0.079188
   38  H  6  S   -0.171274  -0.208996  -0.041468   0.255071   1.463725

                     11         12         13         14         15
                    0.1921     0.2009     0.2443     0.3656     0.5578
                     A          A          A          A          A   
    1  C  1  S   -0.074534   0.037774  -0.049130   0.077269  -0.013329
    2  C  1  S    0.071309  -0.034371   0.055690  -0.018237  -0.162115
    3  C  1  X    0.000342  -0.085122  -0.003907   0.207402   0.619065
    4  C  1  Y   -0.101489  -0.205759  -0.003519  -0.030453  -0.086530
    5  C  1  Z    0.055914  -0.298643   0.107058   0.105949  -0.116690
    6  C  1  S    1.192460  -0.770020   1.105239  -2.684022  -0.475669
    7  C  1  X   -0.124571  -0.177889  -0.027425   2.409457  -0.648672
    8  C  1  Y   -0.397340  -0.571546  -0.423249   0.375441   0.074755
    9  C  1  Z    0.181341  -0.902059   0.754838   0.072237  -0.018987
   10  C  1 XX   -0.011645   0.013660   0.007784   0.021178  -0.072805
   11  C  1 YY   -0.001779  -0.006692  -0.003938  -0.011461   0.029129
   12  C  1 ZZ   -0.005198   0.003593  -0.004839  -0.006336   0.019363
   13  C  1 XY    0.001517  -0.001162  -0.015596  -0.002913  -0.016674
   14  C  1 XZ    0.000225   0.011759   0.017849  -0.004047   0.020886
   15  C  1 YZ   -0.010317  -0.001416   0.005573  -0.012131   0.004702
   16  C  2  S    0.122320   0.000345   0.015843  -0.073567  -0.028675
   17  C  2  S   -0.130601   0.016763   0.013709   0.071986  -0.243266
   18  C  2  X    0.175807   0.054267  -0.105050   0.213503  -0.493173
   19  C  2  Y    0.000963   0.121520   0.257774   0.109113  -0.094572
   20  C  2  Z    0.031789  -0.076865  -0.263897  -0.050068  -0.072147
   21  C  2  S   -2.139559  -0.138861  -0.430971   2.330346   0.175362
   22  C  2  X    0.416644   0.209319  -0.733900   2.381445   1.357322
   23  C  2  Y    0.007362   0.454870   0.866787   0.827129   0.208397
   24  C  2  Z    0.117732  -0.024152  -1.066155  -0.472361   0.014569
   25  C  2 XX    0.014199  -0.000283   0.005891  -0.003487  -0.083764
   26  C  2 YY    0.002726  -0.011744   0.003516   0.005556   0.005275
   27  C  2 ZZ    0.005938   0.013382  -0.002239   0.005326   0.017573
   28  C  2 XY   -0.001695  -0.000630   0.008718  -0.013518  -0.041085
   29  C  2 XZ    0.003070  -0.017814  -0.002462   0.016526   0.007386
   30  C  2 YZ   -0.001480  -0.009858   0.001924  -0.011936  -0.015589
   31  H  3  S    0.042203   0.041262   0.040454  -0.009095   0.038126
   32  H  3  S    1.081856   0.677604   1.425369   0.963149   0.300805
   33  H  4  S    0.064769  -0.024897  -0.019521   0.065534   0.083029
   34  H  4  S    1.456947  -0.203941  -1.619595   0.203612   0.190094
   35  H  5  S   -0.015005   0.082287   0.037470  -0.053737   0.078728
   36  H  5  S   -0.640778   1.607404  -0.909778  -0.704192   0.061536
   37  H  6  S   -0.024288  -0.093053   0.032372  -0.110156   0.169837
   38  H  6  S   -0.673123  -0.873950  -0.053980   0.083957  -0.408152

                     16         17         18         19
                    0.6258     0.6437     0.6799     0.7392
                     A          A          A          A   
    1  C  1  S    0.003654   0.025468  -0.001748   0.028811
    2  C  1  S   -0.036432  -0.275070   0.108031  -0.144590
    3  C  1  X   -0.141776  -0.093814  -0.097204   0.588621
    4  C  1  Y   -0.514821  -0.710362  -0.209660  -0.178834
    5  C  1  Z   -0.373152   0.578613  -0.236979  -0.250964
    6  C  1  S    0.004979   0.020131  -0.294783   0.537546
    7  C  1  X    0.493414  -0.042475   0.262379  -0.727906
    8  C  1  Y    0.923529   0.814239   0.548748   0.251110
    9  C  1  Z    0.744644  -0.637961   0.475203   0.352845
   10  C  1 XX   -0.031739  -0.058096  -0.012253   0.105273
   11  C  1 YY    0.082422  -0.011351   0.037086  -0.046696
   12  C  1 ZZ   -0.068090  -0.010557  -0.010266  -0.010505
   13  C  1 XY    0.027654  -0.009526  -0.026391   0.043587
   14  C  1 XZ   -0.024800   0.016397  -0.043785  -0.001181
   15  C  1 YZ    0.028646   0.011001   0.009429   0.003699
   16  C  2  S    0.012262   0.007520   0.008501  -0.073872
   17  C  2  S   -0.092785  -0.106481   0.036803  -0.226871
   18  C  2  X    0.076760  -0.028743  -0.185009   0.551199
   19  C  2  Y   -0.194500  -0.121605   0.694818   0.180061
   20  C  2  Z   -0.439731   0.200206   0.605408   0.133898
   21  C  2  S    0.488025   0.257950   0.203697   0.553780
   22  C  2  X   -0.054570  -0.122275   0.454576  -1.259746
   23  C  2  Y   -0.071699   0.250342  -0.976102  -0.352218
   24  C  2  Z    0.323145  -0.356655  -0.776105  -0.244484
   25  C  2 XX    0.047946   0.019148   0.040084  -0.137177
   26  C  2 YY   -0.019317  -0.005125   0.002419  -0.021368
   27  C  2 ZZ   -0.030426  -0.020081  -0.007854  -0.005028
   28  C  2 XY   -0.043940   0.009075   0.007326  -0.048248
   29  C  2 XZ    0.001733  -0.021723   0.022413  -0.022765
   30  C  2 YZ    0.020372   0.008875  -0.010031   0.110338
   31  H  3  S   -0.154932   0.197296   0.017983  -0.468677
   32  H  3  S   -0.015674   0.067574  -0.024273  -0.184610
   33  H  4  S    0.125978  -0.233360   0.144321  -0.465501
   34  H  4  S   -0.105361  -0.235441   0.043880  -0.370225
   35  H  5  S   -0.395375   0.146655  -0.145626   0.097584
   36  H  5  S   -0.169459   0.148551   0.096559  -0.072108
   37  H  6  S    0.308910   0.096181   0.236051  -0.184898
   38  H  6  S    0.095876   0.148170  -0.341392   0.387121

     ------------------------------------------
     PROPERTIES FOR THE BHHLYP   DFT FUNCTIONAL
      USING THE RELAXED DENSITY OF EXCITED STATE    3
     ------------------------------------------

          -----------------
          ENERGY COMPONENTS
          -----------------

         WAVEFUNCTION NORMALIZATION =       1.0000000000

                ONE ELECTRON ENERGY =    -169.0274535330
                TWO ELECTRON ENERGY =      57.8101610941
           NUCLEAR REPULSION ENERGY =      32.8767202998
                                      ------------------
                       TOTAL ENERGY =     -78.3405721390

 ELECTRON-ELECTRON POTENTIAL ENERGY =      57.8101610941
  NUCLEUS-ELECTRON POTENTIAL ENERGY =    -246.9042534458
   NUCLEUS-NUCLEUS POTENTIAL ENERGY =      32.8767202998
                                      ------------------
             TOTAL POTENTIAL ENERGY =    -156.2173720519
               TOTAL KINETIC ENERGY =      77.8767999129
                 VIRIAL RATIO (V/T) =       2.0059552039

          ---------------------------------------
          MULLIKEN AND LOWDIN POPULATION ANALYSES
          ---------------------------------------

     ATOMIC MULLIKEN POPULATION IN EACH MOLECULAR ORBITAL

                      1          2          3          4          5

                  2.000000   2.000000   2.000000   2.000000   2.000000

    1             1.997306   0.000957   0.939510   0.505466   0.535795
    2             0.001573   1.998173   0.800045   0.779614   0.778849
    3            -0.000005   0.000376   0.040174   0.198472   0.436583
    4             0.000019   0.000419   0.044948   0.238925   0.017521
    5             0.000595   0.000011   0.065808   0.193633   0.230986
    6             0.000512   0.000064   0.109514   0.083891   0.000266

                      6          7          8          9

                  2.000000   2.000000   1.000000   1.000000

    1             0.672506   0.689522   0.906320   0.031536
    2             0.473118   0.659588   0.016951   0.890759
    3             0.083405   0.025230   0.036621   0.000336
    4             0.213094   0.297881   0.018213   0.000822
    5             0.288226   0.002358   0.017085   0.024633
    6             0.269651   0.325422   0.004809   0.051913

     ATOMIC SPIN POPULATION (ALPHA MINUS BETA)
       ATOM         MULL.POP.                    LOW.POP.
    1 C            -0.744950                    -0.708303
    2 C             0.754650                     0.714367
    3 H            -0.034454                    -0.037034
    4 H            -0.016045                    -0.016982
    5 H            -0.001784                    -0.001298
    6 H             0.042583                     0.049250

               ----- POPULATIONS IN EACH AO -----
                             MULLIKEN      LOWDIN
              1  C  1  S      1.99387     1.98007
              2  C  1  S      0.69333     0.37723
              3  C  1  X      0.74395     0.66528
              4  C  1  Y      0.61837     0.56376
              5  C  1  Z      0.58767     0.53324
              6  C  1  S      0.68663     0.37052
              7  C  1  X      0.21737     0.38476
              8  C  1  Y      0.38927     0.47426
              9  C  1  Z      0.34406     0.43423
             10  C  1 XX      0.00582     0.17454
             11  C  1 YY      0.00418     0.14853
             12  C  1 ZZ      0.00091     0.15114
             13  C  1 XY      0.00682     0.01478
             14  C  1 XZ      0.01114     0.02229
             15  C  1 YZ      0.00191     0.00303
             16  C  2  S      1.99356     1.98025
             17  C  2  S      0.67971     0.36749
             18  C  2  X      0.72733     0.65058
             19  C  2  Y      0.64742     0.59764
             20  C  2  Z      0.64260     0.59651
             21  C  2  S      0.61785     0.34548
             22  C  2  X      0.22779     0.37980
             23  C  2  Y      0.38991     0.47421
             24  C  2  Z      0.43073     0.48921
             25  C  2 XX      0.01370     0.18087
             26  C  2 YY     -0.00359     0.14007
             27  C  2 ZZ     -0.00739     0.13310
             28  C  2 XY      0.01198     0.02467
             29  C  2 XZ      0.00996     0.02000
             30  C  2 YZ      0.00463     0.00694
             31  H  3  S      0.50527     0.46311
             32  H  3  S      0.31210     0.36167
             33  H  4  S      0.51335     0.47334
             34  H  4  S      0.31566     0.36164
             35  H  5  S      0.50588     0.46687
             36  H  5  S      0.30397     0.35246
             37  H  6  S      0.50044     0.47138
             38  H  6  S      0.35184     0.36505

          ----- MULLIKEN ATOMIC OVERLAP POPULATIONS -----
          (OFF-DIAGONAL ELEMENTS NEED TO BE MULTIPLIED BY 2)

             1           2           3           4           5

    1    5.2757437
    2    0.3724178   5.4743573
    3   -0.0435876   0.3711571   0.5412337
    4   -0.0364206   0.3658097  -0.0435961   0.5333741
    5    0.3708996  -0.0497439   0.0002106   0.0026700   0.5485994
    6    0.3662543  -0.1478139  -0.0080452   0.0071690  -0.0627819

             6

    6    0.6974943

          TOTAL MULLIKEN AND LOWDIN ATOMIC POPULATIONS
       ATOM         MULL.POP.    CHARGE          LOW.POP.     CHARGE
    1 C             6.305307   -0.305307         6.297666   -0.297666
    2 C             6.386184   -0.386184         6.386817   -0.386817
    3 H             0.817373    0.182627         0.824780    0.175220
    4 H             0.829006    0.170994         0.834975    0.165025
    5 H             0.809854    0.190146         0.819329    0.180671
    6 H             0.852276    0.147724         0.836432    0.163568

          -------------------------------
          BOND ORDER AND VALENCE ANALYSIS     BOND ORDER THRESHOLD=0.050
          -------------------------------

                   BOND                       BOND                       BOND
  ATOM PAIR DIST  ORDER      ATOM PAIR DIST  ORDER      ATOM PAIR DIST  ORDER
    1   2  1.378  1.164        1   5  1.093  0.919        1   6  1.150  0.907
    2   3  1.109  0.901        2   4  1.088  0.926

                       TOTAL       BONDED        FREE
      ATOM            VALENCE     VALENCE     VALENCE
    1 C                 3.784       3.007       0.776
    2 C                 3.799       2.991       0.808
    3 H                 0.925       0.901       0.024
    4 H                 0.933       0.921       0.012
    5 H                 0.918       0.903       0.015
    6 H                 0.912       0.893       0.019

          -----------------------------------------
          ATOMIC SPIN DENSITY AT THE NUCLEUS (A.U.)
          -----------------------------------------
                            SPIN DENS    ALPHA DENS     BETA DENS
    1  C            6.0    -0.3654726      58.78847      59.15395
    2  C            6.0    -0.0193627      58.91693      58.93629
    3  H            1.0    -0.0163760       0.19130       0.20767
    4  H            1.0    -0.0102155       0.20163       0.21184
    5  H            1.0    -0.0042204       0.19978       0.20400
    6  H            1.0     0.0230616       0.21049       0.18743

          ---------------------
          ELECTROSTATIC MOMENTS
          ---------------------

 POINT   1           X           Y           Z (BOHR)    CHARGE
                -1.207366    0.287838   -0.160270       -0.00 (A.U.)
         DX          DY          DZ         /D/  (DEBYE)
    -0.166596   -0.841868    0.479663    0.983144
 ...... END OF PROPERTY EVALUATION ......
 STEP CPU TIME =     0.01 TOTAL CPU TIME =       1343.8 (     22.4 MIN)
 TOTAL WALL CLOCK TIME=       1365.4 SECONDS, CPU UTILIZATION IS    98.42%
  $VIB   
          IVIB=   0 IATOM=   0 ICOORD=   0 E=      -78.3405721390
 -3.585372749E-02 9.180754601E-02-2.516249388E-02 1.070294548E-01-2.943413526E-02
  4.304127129E-04-1.927372750E-02-9.310667381E-03 3.285187735E-03-9.494472350E-03
  3.793671813E-03-5.395994233E-03-6.618971805E-03-2.918136321E-02 2.475074450E-03
 -3.578855564E-02-2.767505197E-02 2.436781321E-02
 -1.665957712E-01-8.418684037E-01 4.796627181E-01
 ......END OF GEOMETRY SEARCH......
 STEP CPU TIME =     0.00 TOTAL CPU TIME =       1343.8 (     22.4 MIN)
 TOTAL WALL CLOCK TIME=       1365.4 SECONDS, CPU UTILIZATION IS    98.42%
              2889499  WORDS OF DYNAMIC MEMORY USED
 EXECUTION OF GAMESS TERMINATED NORMALLY 06:43:32 12-MAR-2022    
 DDI: 263640 bytes (0.3 MB / 0 MWords) used by master data server.

 ----------------------------------------
 CPU timing information for all processes
 ========================================
 0: 1340.844 + 2.956 = 1343.800
 ----------------------------------------
Note: The following floating-point exceptions are signalling: IEEE_UNDERFLOW_FLAG IEEE_DENORMAL
 ddikick.x: exited gracefully.
