
 Distributed Data Interface kickoff program.
 Initiating 1 compute processes on 1 nodes to run the following command:
 /usr/local/gamess/gamess.00.x /home/webmo/webmo/yamnor/75/input 

          *******************************************************
          *                                                     *
          *      GAMESS VERSION = 30 SEP 2021 (R2 Patch 1)      *
          *                                                     *
          *              doi.org/10.1063/5.0005188              *
          *                                                     *
          **************** 64 BIT LINUX VERSION *****************

  GAMESS HAS BEEN MADE POSSIBLE WITH IMPORTANT CONTRIBUTIONS FROM
  THE FOLLOWING INDIVIDUALS (IN ALPHABETICAL ORDER):

     IVANA ADAMOVIC, CHRISTINE AIKENS, TOMOKO AKAMA,
     YURI ALEXEEV, YURIKO AOKI, POOJA ARORA, TOSHIO ASADA,
     ANDREY ASADCHEV, KIM K. BALDRIDGE, PRADIPTA BANDYOPADHYAY,
     TAYLOR A. BARNES, MARIA BARYSZ, ROB BELL,
     JONATHAN BENTZ, COLLEEN BERTONI,
     JERRY A. BOATZ, BRETT BODE, KURT BRORSEN, KURT R. BRORSEN,
     LAIMUTIS BYTAUTAS, CALEB CARLIN, LAURA CARRINGTON,
     GALINA CHABAN, BENOIT CHAMPAGNE, WEI CHEN, MAHITO CHIBA,
     DAN CHIPMAN, CHEOL HO CHOI, TANNER CULPITT,
     DIPAYAN DATTA, PAUL DAY, ALBERT DEFUSCO,
     NUWAN DESILVA, J. EMILIANO DEUSTUA,
     TIM DUDLEY, MICHEL DUPUIS, STEVEN T. ELBERT,
     DMITRI FEDOROV, ALEX FINDLATER, GRAHAM FLETCHER,
     MARK FREITAG, CHRISTIAN FRIEDL, DAVID GARMER,
     IGOR S. GERASIMOV, KURT GLAESEMANN, MARK S. GORDON,
     JEFFREY GOUR, FENG LONG GU, EMILIE B. GUIDEZ,
     ANASTASIA GUNINA, SHARON HAMMES-SCHIFFER, MASATAKE HARUTA,
     KIMIHIKO HIRAO, YASUHIRO IKABATA, TZVETELIN IORDANOV,
     STEPHAN IRLE, KAZUYA ISHIMURA, JOE IVANIC, FRANK JENSEN,
     JAN H. JENSEN, VISVALDAS KAIRYS, MUNEAKI KAMIYA,
     MICHIO KATOUDA, NAOAKI KAWAKAMI, DAN KEMP, BERNARD KIRTMAN,
     KAZUO KITAURA, MARIUSZ KLOBUKOWSKI, MASATO KOBAYASHI,
     PRAKASHAN KORAMBATH, JACEK KORCHOWIEC, SHIRO KOSEKI,
     KAROL KOWALSKI, JIMMY KROMANN, STANISLAW KUCHARSKI,
     HENRY KURTZ, SAROM SOK LEANG, HUI LI, SHUHUA LI, WEI LI,
     JESSE LUTZ, ALEKSANDR O. LYKHIN, MARCIN MAKOWSKI,
     JOANI MATO, NIKITA MATSUNAGA, BENEDETTA MENNUCCI,
     GRANT MERRILL, NORIYUKI MINEZAWA, VLADIMIR MIRONOV,
     EISAKU MIYOSHI, JOHN A. MONTGOMERY JR., HIROTOSHI MORI,
     JONATHAN MULLIN, MONIKA MUSIAL, SHIGERU NAGASE,
     TAKESHI NAGATA, HIROMI NAKAI, TAKAHITO NAKAJIMA,
     YUYA NAKAJIMA, HARUYUKI NAKANO, HIROYA NAKATA, SEAN NEDD,
     HEATHER NETZLOFF, KIET A. NGUYEN, YOSHIO NISHIMOTO,
     BOSILJKA NJEGIC, RYAN OLSON, MIKE PAK, ROBERTO PEVERATI,
     BUU PHAM, PIOTR PIECUCH, ANNA POMOGAEVA, DAVID POOLE,
     SPENCER PRUITT, OLIVIER QUINET, LUKE ROSKOP,
     KLAUS RUEDENBERG, ANDREW SAND, TOSAPORN SATTASATHUCHANA,
     NOZOMI SAWADA, MICHAEL W. SCHMIDT, PATRICK E. SCHNEIDER,
     JUNJI SEINO, PRACHI SHARMA, JUN SHEN, JIM SHOEMAKER,
     YINAN SHU, DEJUN SI, JONATHAN SKONE, LYUDMILA SLIPCHENKO,
     TONY SMITH, JIE SONG, MARK SPACKMAN, CASPER STEINMANN,
     WALT STEVENS, PEIFENG SU, SHUJUN SU, CHET SWALINA,
     TETSUYA TAKETSUGU, ZHEN TAO, NANDUN THELLAMUREGE
     SEIKEN TOKURA, JACOPO TOMASI, TSUGUKI TOUMA, TAKAO TSUNEDA,
     HIROAKI UMEDA, JORGE LUIS GALVEZ VALLEJO, YALI WANG,
     SIMON WEBB, AARON WEST, THERESA L. WINDUS, MARTA WLOCH,
     PENG XU, KIYOSHI YAGI, SUSUMU YANAGISAWA, YANG YANG,
     SOOHAENG YOO, TAKESHI YOSHIKAWA, FEDERICO ZAHARIEV,
     TOBY ZENG

  WHO ARE SUPPORTED BY THEIR INSTITUTION/UNIVERSITY/COMPANY/GROUP
  (IN ALPHABETICAL ORDER):

     EP ANALYTICS, FACULTES UNIVERSITAIRES NOTRE-DAME DE LA PAIX,
     INSTITUTE FOR MOLECULAR SCIENCE, IOWA STATE UNIVERSITY,
     JACKSON STATE UNIVERSITY, JOHANNES KEPLER UNIVERSITY LINZ,
     KYUSHU UNIVERSITY, MICHIGAN STATE UNIVERSITY,
     MIE UNIVERSITY, THE MOLECULAR SCIENCES SOFTWARE INSTITUTE,
     MOSCOW STATE UNIVERSITY,
     N. COPERNICUS UNIVERSITY, NAGOYA UNIVERSITY,
     NANJING UNIVERSITY, NAT. INST. OF ADVANCED INDUSTRIAL
     SCIENCE AND TECHNOLOGY, NATIONAL INST. OF STANDARDS AND
     TECHNOLOGY, NESMEYANOV INSTITUTE OF ORGANOELEMENT COMPOUNDS
     OF RUSSIAN ACADEMY OF SCIENCES, OSAKA PREFECTURE UNIVERSITY,
     PENNSYLVANIA STATE UNIVERSITY, TOKYO INSTITUTE OF TECHNOLOGY,
     UNIVERSITY OF AARHUS, UNIVERSITY OF ALBERTA,
     UNIVERSITY OF CALIFORNIA AT SANTA BARBARA,
     UNIVERSITY OF COPENHAGEN, UNIVERSITY OF IOWA,
     UNIVERSITY OF MEMPHIS, UNIVERSITY OF MINNESOTA,
     UNIVERSITY OF NEBRASKA, UNIVERSITY OF NEW ENGLAND,
     UNIVERSITY OF NOTRE DAME, UNIVERSITY OF PISA,
     UNIVERSITY OF SILESIA, UNIVERSITY OF TOKYO,
     UNIVERSITY OF ZURICH, WASEDA UNIVERSITY, YALE UNIVERSITY

  GAMESS SOFTWARE MANAGEMENT TEAM FOR THIS RELEASE:
     MARK S. GORDON (TEAM LEAD),
     BRETT BODE (SENIOR ADVISOR),
     GIUSEPPE BARCA,
     COLLEEN BERTONI,
     KRISTOPHER KEIPERT (ADVISOR),
     SAROM S. LEANG (DEVELOPMENT LEAD),
     BUU PHAM,
     JORGE LUIS GALVEZ VALLEJO (WEBSITE ADMINISTRATOR),
     PENG XU

 EXECUTION OF GAMESS BEGUN 21:50:01 10-MAR-2022    

            ECHO OF THE FIRST FEW INPUT CARDS -
 INPUT CARD> $CONTRL                                                                        
 INPUT CARD>   RUNTYP=CONICAL                                                               
 INPUT CARD>   SCFTYP=ROHF                                                                  
 INPUT CARD>   DFTTYP=BHHLYP                                                                
 INPUT CARD>   TDDFT=SPNFLP                                                                 
 INPUT CARD>   ICHARG=0                                                                     
 INPUT CARD>   MULT=3                                                                       
 INPUT CARD>   COORD=UNIQUE                                                                 
 INPUT CARD> $END                                                                           
 INPUT CARD> $SYSTEM                                                                        
 INPUT CARD>   MWORDS=128                                                                   
 INPUT CARD> $END                                                                           
 INPUT CARD> $BASIS                                                                         
 INPUT CARD>   GBASIS=N31                                                                   
 INPUT CARD>   NGAUSS=6                                                                     
 INPUT CARD>   NDFUNC=1                                                                     
 INPUT CARD> $END                                                                           
 INPUT CARD> $TDDFT                                                                         
 INPUT CARD>   NSTATE=3                                                                     
 INPUT CARD>   TAMMD=.T.                                                                    
 INPUT CARD> $END                                                                           
 INPUT CARD> $CONICL                                                                        
 INPUT CARD>   IXROOT(1)=2,3                                                                
 INPUT CARD> $END                                                                           
 INPUT CARD> $DATA                                                                          
 INPUT CARD>C2H4                                                                            
 INPUT CARD>C1 1                                                                            
 INPUT CARD>C 6  0.00000000  0.00000000  0.00000000                                         
 INPUT CARD>C 6 -1.34665083  0.19761503 -0.29592767                                         
 INPUT CARD>H 1 -2.11876635 -0.40244779  0.16092868                                         
 INPUT CARD>H 1 -1.73868969  0.87016282 -1.05965572                                         
 INPUT CARD>H 1  0.57015575  0.94008604 -0.02288355                                         
 INPUT CARD>H 1  0.22120156 -0.21581378 -1.09514823                                         
 INPUT CARD> $END                                                                           
 INPUT CARD>                                                                                
  128000000 WORDS OF MEMORY AVAILABLE

     BASIS OPTIONS
     -------------
     GBASIS=N31          IGAUSS=       6      POLAR=POPN31  
     NDFUNC=       1     NFFUNC=       0     DIFFSP=       F
     NPFUNC=       0      DIFFS=       F     BASNAM=        


     RUN TITLE
     ---------
 C2H4                                                                            

 THE POINT GROUP OF THE MOLECULE IS C1      
 THE ORDER OF THE PRINCIPAL AXIS IS     1

 ATOM      ATOMIC                      COORDINATES (BOHR)
           CHARGE         X                   Y                   Z
 C           6.0     0.0000000000        0.0000000000        0.0000000000
 C           6.0    -2.5448010698        0.3734382578       -0.5592222085
 H           1.0    -4.0038878335       -0.7605160475        0.3041111088
 H           1.0    -3.2856470918        1.6443692945       -2.0024589521
 H           1.0     1.0774381378        1.7765050205       -0.0432436391
 H           1.0     0.4180103365       -0.4078289086       -2.0695300706

          INTERNUCLEAR DISTANCES (ANGS.)
          ------------------------------

                1 C          2 C          3 H          4 H          5 H     

   1 C       0.0000000    1.3928723 *  2.1626449 *  2.2142934 *  1.0997104 *
   2 C       1.3928723 *  0.0000000    1.0793310 *  1.0905483 *  2.0736354 *
   3 H       2.1626449 *  1.0793310 *  0.0000000    1.8038354 *  3.0110606  
   4 H       2.2142934 *  1.0905483 *  1.8038354 *  0.0000000    2.5319070 *
   5 H       1.0997104 *  2.0736354 *  3.0110606    2.5319070 *  0.0000000  
   6 H       1.1379171 *  1.8077162 *  2.6623319 *  2.2409325 *  1.6148142 *

                6 H     

   1 C       1.1379171 *
   2 C       1.8077162 *
   3 H       2.6623319 *
   4 H       2.2409325 *
   5 H       1.6148142 *
   6 H       0.0000000  

  * ... LESS THAN  3.000


     ATOMIC BASIS SET
     ----------------
 THE CONTRACTED PRIMITIVE FUNCTIONS HAVE BEEN UNNORMALIZED
 THE CONTRACTED BASIS FUNCTIONS ARE NOW NORMALIZED TO UNITY

  SHELL TYPE  PRIMITIVE        EXPONENT          CONTRACTION COEFFICIENT(S)

 C         

      1   S       1          3047.5248800    0.001834737132
      1   S       2           457.3695180    0.014037322813
      1   S       3           103.9486850    0.068842622264
      1   S       4            29.2101553    0.232184443216
      1   S       5             9.2866630    0.467941348435
      1   S       6             3.1639270    0.362311985337

      2   L       7             7.8682723   -0.119332419775    0.068999066591
      2   L       8             1.8812885   -0.160854151696    0.316423960957
      2   L       9             0.5442493    1.143456437840    0.744308290898

      3   L      10             0.1687145    1.000000000000    1.000000000000

      4   D      11             0.8000000    1.000000000000

 C         

      5   S      12          3047.5248800    0.001834737132
      5   S      13           457.3695180    0.014037322813
      5   S      14           103.9486850    0.068842622264
      5   S      15            29.2101553    0.232184443216
      5   S      16             9.2866630    0.467941348435
      5   S      17             3.1639270    0.362311985337

      6   L      18             7.8682723   -0.119332419775    0.068999066591
      6   L      19             1.8812885   -0.160854151696    0.316423960957
      6   L      20             0.5442493    1.143456437840    0.744308290898

      7   L      21             0.1687145    1.000000000000    1.000000000000

      8   D      22             0.8000000    1.000000000000

 H         

      9   S      23            18.7311370    0.033494604338
      9   S      24             2.8253944    0.234726953484
      9   S      25             0.6401217    0.813757326146

     10   S      26             0.1612778    1.000000000000

 H         

     11   S      27            18.7311370    0.033494604338
     11   S      28             2.8253944    0.234726953484
     11   S      29             0.6401217    0.813757326146

     12   S      30             0.1612778    1.000000000000

 H         

     13   S      31            18.7311370    0.033494604338
     13   S      32             2.8253944    0.234726953484
     13   S      33             0.6401217    0.813757326146

     14   S      34             0.1612778    1.000000000000

 H         

     15   S      35            18.7311370    0.033494604338
     15   S      36             2.8253944    0.234726953484
     15   S      37             0.6401217    0.813757326146

     16   S      38             0.1612778    1.000000000000

 TOTAL NUMBER OF BASIS SET SHELLS             =   16
 NUMBER OF CARTESIAN GAUSSIAN BASIS FUNCTIONS =   38
 NUMBER OF ELECTRONS                          =   16
 CHARGE OF MOLECULE                           =    0
 SPIN MULTIPLICITY                            =    3
 NUMBER OF OCCUPIED ORBITALS (ALPHA)          =    9
 NUMBER OF OCCUPIED ORBITALS (BETA )          =    7
 TOTAL NUMBER OF ATOMS                        =    6
 THE NUCLEAR REPULSION ENERGY IS       32.8379083192

 SELECTED MURRAY-HANDY-LAMING RADIAL GRID

 LEGACY BECKE'S FUZZY CELL METHOD

 SELECTED ORIGINAL BECKE'S PARTITION FUNCTION

     LEBEDEV GRID-BASED DFT OPTIONS
     ------------------------------
     DFTTYP=BHHLYP  
     NRAD  =      96     NLEB  =     302
     NRAD0 =      24     NLEB0 =     110
     SWOFF =    5.00E-03 (PURE SCF -> DFT)
     SWITCH=    3.00E-04 (COARSE -> TIGHT GRID)
     THRESH=    0.00E+00 GTHRE=    1.00E+00

 GRIMME'S EMPIRICAL DISPERSION CORRECTION= F

     $CONTRL OPTIONS
     ---------------
 SCFTYP=ROHF         RUNTYP=CONICAL      EXETYP=RUN     
 MPLEVL=       0     CITYP =NONE         CCTYP =NONE         VBTYP =NONE    
 DFTTYP=BHHLYP       TDDFT =SPNFLP  
 MULT  =       3     ICHARG=       0     NZVAR =       0     COORD =UNIQUE  
 PP    =NONE         RELWFN=NONE         LOCAL =NONE         NUMGRD=       F
 ISPHER=      -1     NOSYM =       0     MAXIT =      30     UNITS =ANGS    
 PLTORB=       F     MOLPLT=       F     AIMPAC=       F     FRIEND=        
 NPRINT=       7     IREST =       0     GEOM  =INPUT   
 NORMF =       0     NORMP =       0     ITOL  =      20     ICUT  =       9
 INTTYP=BEST         GRDTYP=BEST         QMTTOL= 1.0E-06

     $SYSTEM OPTIONS
     ---------------
  REPLICATED MEMORY=   128000000 WORDS (ON EVERY NODE).
 DISTRIBUTED MEMDDI=           0 MILLION WORDS IN AGGREGATE,
 MEMDDI DISTRIBUTED OVER   1 PROCESSORS IS           0 WORDS/PROCESSOR.
 TOTAL MEMORY REQUESTED ON EACH PROCESSOR=   128000000 WORDS.
 TIMLIM=      525600.00 MINUTES, OR     365.0 DAYS.
 PARALL= F  BALTYP=  DLB     KDIAG=    0  COREFL= F
 MXSEQ2=     300 MXSEQ3=     150  mem10=         0  mem22=         0

          ----------------
          PROPERTIES INPUT
          ----------------

     MOMENTS            FIELD           POTENTIAL          DENSITY
 IEMOM =       1   IEFLD =       0   IEPOT =       0   IEDEN =       0
 WHERE =COMASS     WHERE =NUCLEI     WHERE =NUCLEI     WHERE =NUCLEI  
 OUTPUT=BOTH       OUTPUT=BOTH       OUTPUT=BOTH       OUTPUT=BOTH    
 IEMINT=       0   IEFINT=       0                     IEDINT=       0
                                                       MORB  =       0
          EXTRAPOLATION IN EFFECT
          DIIS IN EFFECT
 ORBITAL PRINTING OPTION: NPREO=     1    38     2     1

     -------------------------------
     INTEGRAL TRANSFORMATION OPTIONS
     -------------------------------
     NWORD  =            0
     CUTOFF = 1.0E-09     MPTRAN =       0
     DIRTRF =       F     AOINTS =DUP     

          ----------------------
          INTEGRAL INPUT OPTIONS
          ----------------------
 NOPK  =       1 NORDER=       0 SCHWRZ=       T

          ----------------------
          TDDFT INPUT PARAMETERS
          ----------------------
 NSTATE=       3 IROOT =       1 MULT  =       3
 MAXVEC=      50 NTRIAL=       5 CNVTOL=  1.00E-07
 TDPRP =       F TRNSD =       F TAMMD =       T
 TPA   =       F ALPHA =       F BETA  =       F
 PFREQ =    0.00    0.00
   NRAD=      48   NLEB=     110

     ------------------------------------------
     THE POINT GROUP IS C1 , NAXIS= 1, ORDER= 1
     ------------------------------------------

     DIMENSIONS OF THE SYMMETRY SUBSPACES ARE
 A   =   38

 ..... DONE SETTING UP THE RUN .....
 STEP CPU TIME =     0.01 TOTAL CPU TIME =          0.0 (      0.0 MIN)
 TOTAL WALL CLOCK TIME=          0.0 SECONDS, CPU UTILIZATION IS    83.34%


          -----------------------------
          STATIONARY POINT LOCATION RUN
          -----------------------------

 OBTAINING INITIAL HESSIAN, HESS=GUESS   
 CARTESIAN COORDINATE OPTIMIZATION USING BADGER'S RULE FORCE CONSTANT GUESS

          PARAMETERS CONTROLLING GEOMETRY SEARCH ARE
          METHOD =QA                  UPHESS =BFGS    
          NNEG   =         0          NFRZ   =         0
          NSTEP  =        50          IFOLOW =         1
          HESS   =GUESS               RESTAR =         F
          IHREP  =         0          HSSEND =         F
          NPRT   =         0          NPUN   =         0
          OPTTOL = 1.000E-04          RMIN   = 1.500E-03
          RMAX   = 1.000E-01          RLIM   = 7.000E-02
          DXMAX  = 2.000E-01          PURIFY =         F
          MOVIE  =         F          TRUPD  =         T
          TRMAX  = 3.000E-01          TRMIN  = 5.000E-02
          ITBMAT =         5          STPT   =         F
          STSTEP = 1.000E-02          PROJCT=          T


          ---------------------------------------
          CONICAL INTERSECTION POINT LOCATION RUN
          ---------------------------------------

          IXROOT(1)=          2          IXROOT(2)=          3
          SYMOFF   =          T          DEBUG    =          F
          TOLSTP   =  1.000E-06          TOLGRD   =  5.000E-03
          ALPHA    =  2.000E-02          SIGMA    =  3.500E+00

 CONICAL INTERSECTION SEARCH BY BRANCHING PLANE UPDATING METHOD

 REFERENCE: S. MAEDA, K. OHNO, AND K. MOROKUMA,
            J. CHEM. THEORY COMPUT. 6, 1538 (2010).

 PROGRAMMED BY NORIYUKI MINEZAWA


 BEGINNING GEOMETRY SEARCH POINT NSERCH=   0 ...

 COORDINATES OF ALL ATOMS ARE (ANGS)
   ATOM   CHARGE       X              Y              Z
 ------------------------------------------------------------
 C           6.0   0.0000000000   0.0000000000   0.0000000000
 C           6.0  -1.3466508300   0.1976150300  -0.2959276700
 H           1.0  -2.1187663500  -0.4024477900   0.1609286800
 H           1.0  -1.7386896900   0.8701628200  -1.0596557200
 H           1.0   0.5701557500   0.9400860400  -0.0228835500
 H           1.0   0.2212015600  -0.2158137800  -1.0951482300

          ********************
          1 ELECTRON INTEGRALS
          ********************
 ...... END OF ONE-ELECTRON INTEGRALS ......
 STEP CPU TIME =     0.00 TOTAL CPU TIME =          0.0 (      0.0 MIN)
 TOTAL WALL CLOCK TIME=          0.0 SECONDS, CPU UTILIZATION IS    78.16%

          -------------
          GUESS OPTIONS
          -------------
          GUESS =HUCKEL            NORB  =       0          NORDER=       0
          MIX   =       F          PRTMO =       F          PUNMO =       F
          TOLZ  = 1.0E-08          TOLE  = 1.0E-05
          SYMDEN=       F          PURIFY=       F

 INITIAL GUESS ORBITALS GENERATED BY HUCKEL   ROUTINE.
 HUCKEL GUESS REQUIRES     15726 WORDS.

 SYMMETRIES FOR INITIAL GUESS ORBITALS FOLLOW.  ALPHA SET(S).
     9 ORBITALS ARE OCCUPIED (    2 CORE ORBITALS).
     3=A        4=A        5=A        6=A        7=A        8=A        9=A   
    10=A       11=A       12=A       13=A       14=A       15=A       16=A   
    17=A       18=A       19=A   

 SYMMETRIES FOR INITIAL GUESS ORBITALS FOLLOW.   BETA SET(S).
     7 ORBITALS ARE OCCUPIED (    2 CORE ORBITALS).
     3=A        4=A        5=A        6=A        7=A        8=A        9=A   
    10=A       11=A       12=A       13=A       14=A       15=A       16=A   
    17=A   
 ...... END OF INITIAL ORBITAL SELECTION ......
 STEP CPU TIME =     0.00 TOTAL CPU TIME =          0.0 (      0.0 MIN)
 TOTAL WALL CLOCK TIME=          0.0 SECONDS, CPU UTILIZATION IS    78.33%

                    ----------------------
                    AO INTEGRAL TECHNOLOGY
                    ----------------------
     S,P,L SHELL ROTATED AXIS INTEGRALS, REPROGRAMMED BY
        KAZUYA ISHIMURA (IMS) AND JOSE SIERRA (SYNSTAR).
     S,P,D,L SHELL ROTATED AXIS INTEGRALS PROGRAMMED BY
        KAZUYA ISHIMURA (INSTITUTE FOR MOLECULAR SCIENCE).
     S,P,D,F,G SHELL TO TOTAL QUARTET ANGULAR MOMENTUM SUM 5,
        ERIC PROGRAM BY GRAHAM FLETCHER (ELORET AND NASA ADVANCED
        SUPERCOMPUTING DIVISION, AMES RESEARCH CENTER).
     S,P,D,F,G,L SHELL GENERAL RYS QUADRATURE PROGRAMMED BY
        MICHEL DUPUIS (PACIFIC NORTHWEST NATIONAL LABORATORY).

          --------------------
          2 ELECTRON INTEGRALS
          --------------------

 THE -PK- OPTION IS OFF, THE INTEGRALS ARE NOT IN SUPERMATRIX FORM.
 STORING   15000 INTEGRALS/RECORD ON DISK, USING 12 BYTES/INTEGRAL.
 TWO ELECTRON INTEGRAL EVALUATION REQUIRES   90532 WORDS OF MEMORY.
 SCHWARZ INEQUALITY OVERHEAD:       741 INTEGRALS, T=        0.00
 II,JST,KST,LST =  1  1  1  1 NREC =         1 INTLOC =    1
 II,JST,KST,LST =  2  1  1  1 NREC =         1 INTLOC =    2
 II,JST,KST,LST =  3  1  1  1 NREC =         1 INTLOC =   34
 II,JST,KST,LST =  4  1  1  1 NREC =         1 INTLOC =  214
 II,JST,KST,LST =  5  1  1  1 NREC =         1 INTLOC = 1189
 II,JST,KST,LST =  6  1  1  1 NREC =         1 INTLOC = 3244
 II,JST,KST,LST =  7  1  1  1 NREC =         2 INTLOC =  996
 II,JST,KST,LST =  8  1  1  1 NREC =         3 INTLOC = 8256
 II,JST,KST,LST =  9  1  1  1 NREC =         7 INTLOC = 6201
 II,JST,KST,LST = 10  1  1  1 NREC =         8 INTLOC = 6109
 II,JST,KST,LST = 11  1  1  1 NREC =         9 INTLOC = 7509
 II,JST,KST,LST = 12  1  1  1 NREC =        10 INTLOC =10490
 II,JST,KST,LST = 13  1  1  1 NREC =        12 INTLOC =  159
 II,JST,KST,LST = 14  1  1  1 NREC =        13 INTLOC = 6606
 II,JST,KST,LST = 15  1  1  1 NREC =        14 INTLOC =14952
 II,JST,KST,LST = 16  1  1  1 NREC =        16 INTLOC =10296
 SCHWARZ INEQUALITY TEST SKIPPED          10 INTEGRAL BLOCKS.
 TOTAL NUMBER OF NONZERO TWO-ELECTRON INTEGRALS =              262750
         18 INTEGRAL RECORDS WERE STORED ON DISK FILE  8.
  ...... END OF TWO-ELECTRON INTEGRALS .....
 STEP CPU TIME =     0.05 TOTAL CPU TIME =          0.1 (      0.0 MIN)
 TOTAL WALL CLOCK TIME=          0.1 SECONDS, CPU UTILIZATION IS    61.14%

          ---------------------------
            RO-BHHLYP SCF CALCULATION
          ---------------------------

     NUCLEAR ENERGY =        32.8379083192
     MAXIT = 30     NPUNCH=  2     MULT=  3
     EXTRAP=T  DAMP=F  SHIFT=F  RSTRCT=F  DIIS=T  SOSCF=F
         DENSITY MATRIX CONVERGENCE THRESHOLD=  1.00E-06
     COARSE -> FINE DFT GRID SWITCH THRESHOLD=  3.00E-04 (SWITCH IN $DFT)
                   HF -> DFT SWITCH THRESHOLD=  5.00E-03 (SWOFF IN $DFT)
     ROHF CANONICALIZATION PARAMETERS
             C-C     O-O     V-V
     ALPHA -0.5000  0.5000  1.5000
     BETA   1.5000  0.5000 -0.5000
     MEMORY REQUIRED FOR UHF/ROHF ITERS=    270142 WORDS.

 DFT CODE IS SWITCHING FROM THE FINE GRID NRAD= 96,  NLEB=  302
                      TO THE COARSE GRID NRAD0= 24, NLEB0=  110

     EXCHANGE FUNCTIONAL   =B88&HFX   
     CORRELATION FUNCTIONAL=LYP88     
     DFT THRESHOLD         =.230E-07
     GRID CHANGE THRESHOLD =.300E-03
 FOR AN EULER-MACLAURIN QUADRATURE USING  96 RADIAL POINTS:
 SMALLEST GAUSSIAN PRIMITIVE EXPONENT=        0.1612777588 OF TYPE -S-
 ON ATOM NUMBER   3 HAS RADIAL NORMALIZATION=  1.000000
  LARGEST GAUSSIAN PRIMITIVE EXPONENT=     3047.5248800000 OF TYPE -S-
 ON ATOM NUMBER   1 HAS RADIAL NORMALIZATION=  1.000000
 DFT IS SWITCHED OFF, PERFORMING PURE SCF UNTIL SWOFF THRESHOLD IS REACHED.

 ITER EX      TOTAL ENERGY        E CHANGE  DENSITY CHANGE    DIIS ERROR
          * * *   INITIATING DIIS PROCEDURE   * * *
   1  0      -77.6802215841   -77.6802215841   0.192334756   0.316650545
   2  1      -77.8938638447    -0.2136422606   0.043433808   0.037819422
   3  2      -77.8998946061    -0.0060307614   0.013622235   0.010154674
   4  3      -77.9004509205    -0.0005563144   0.004405452   0.002797997
 CONVERGED TO SWOFF, SO DFT CALCULATION IS NOW SWITCHED ON.
          * * *   INITIATING DIIS PROCEDURE   * * *
   5  4      -78.3736628900    -0.4732119694   0.038045897   0.049867760
   6  5      -78.3770774538    -0.0034145638   0.020383586   0.014095333
   7  6      -78.3774179891    -0.0003405354   0.008514478   0.010229482
   8  7      -78.3778128533    -0.0003948641   0.000257449   0.000179925
 DFT CODE IS SWITCHING BACK TO THE FINE GRID
          * * *   INITIATING DIIS PROCEDURE   * * *
   9  8      -78.3780570766    -0.0002442233   0.000387390   0.000585634
  10  9      -78.3780579672    -0.0000008906   0.000202920   0.000111913
  11 10      -78.3780579831    -0.0000000160   0.000091811   0.000098294
  12 11      -78.3780580284    -0.0000000453   0.000010312   0.000013717
  13 12      -78.3780580290    -0.0000000006   0.000002320   0.000001882
  14 13      -78.3780580291    -0.0000000000   0.000000973   0.000000993
  15 14      -78.3780580291     0.0000000000   0.000000153   0.000000077

          -----------------
          DENSITY CONVERGED
          -----------------
     TIME TO FORM FOCK OPERATORS=       6.4 SECONDS (       0.4 SEC/ITER)
     TIME TO SOLVE SCF EQUATIONS=       0.0 SECONDS (       0.0 SEC/ITER)

 THE CONVERGED ORBITALS WILL UNDERGO GUEST/SAUNDERS
 CANONICALIZATION FOR SPIN-FLIP TDDFT.

 FINAL RO-BHHLYP ENERGY IS      -78.3780580291 AFTER  15 ITERATIONS
 DFT EXCHANGE + CORRELATION ENERGY =        -6.3629421241
 TOTAL ELECTRON NUMBER             =        16.0000720408

          --------------------
          SPIN SZ   =    1.000
          S-SQUARED =    2.000
          --------------------

          ------------
          EIGENVECTORS
          ------------

                      1          2          3          4          5
                  -10.6095   -10.5780    -0.8745    -0.6641    -0.5040
                     A          A          A          A          A   
    1  C  1  S    0.994023  -0.012105  -0.154497   0.104328  -0.025569
    2  C  1  S    0.040897  -0.000527   0.297269  -0.203627   0.061551
    3  C  1  X   -0.000392   0.000429  -0.099378  -0.127763  -0.242561
    4  C  1  Y    0.000531  -0.000074   0.053292  -0.077631  -0.122348
    5  C  1  Z   -0.000830   0.000072  -0.084228   0.075206   0.040855
    6  C  1  S   -0.015805   0.002461   0.245340  -0.238136   0.029443
    7  C  1  X    0.001594  -0.001617  -0.012788  -0.037162  -0.076015
    8  C  1  Y   -0.001964   0.000037   0.023441  -0.037891  -0.049587
    9  C  1  Z    0.002609   0.000193  -0.033032   0.041785   0.018553
   10  C  1 XX   -0.006116  -0.000328   0.006588   0.011912   0.012932
   11  C  1 YY   -0.006372   0.000035  -0.005739  -0.005470  -0.013109
   12  C  1 ZZ   -0.006414  -0.000037   0.000164  -0.006095  -0.005872
   13  C  1 XY    0.000049   0.000057   0.002470  -0.010456  -0.003250
   14  C  1 XZ    0.000018  -0.000088   0.003423   0.005953   0.000673
   15  C  1 YZ    0.000024   0.000043   0.000497  -0.001047   0.004774
   16  C  2  S    0.011755   0.993773  -0.148257  -0.131132  -0.003540
   17  C  2  S    0.000277   0.040844   0.282154   0.256741   0.010058
   18  C  2  X   -0.000220   0.000307   0.104349  -0.187516   0.154931
   19  C  2  Y   -0.000020  -0.000111  -0.012856  -0.006962  -0.268267
   20  C  2  Z   -0.000073  -0.000094   0.009043  -0.018801   0.276149
   21  C  2  S    0.005083  -0.011740   0.213376   0.291962   0.015969
   22  C  2  X    0.002614  -0.000501   0.010505  -0.050743   0.052903
   23  C  2  Y    0.000392   0.000338   0.000145   0.002402  -0.115310
   24  C  2  Z    0.000165  -0.000082  -0.005629  -0.013657   0.119105
   25  C  2 XX   -0.000410  -0.006264   0.013557  -0.005844   0.009856
   26  C  2 YY   -0.000181  -0.006719  -0.007362   0.003575  -0.005780
   27  C  2 ZZ   -0.000213  -0.006737  -0.006137   0.002618  -0.012360
   28  C  2 XY    0.000140  -0.000016  -0.001213   0.004740   0.004836
   29  C  2 XZ   -0.000079   0.000079   0.002194  -0.000926  -0.006303
   30  C  2 YZ   -0.000006  -0.000185  -0.009226  -0.017117   0.009764
   31  H  3  S   -0.000077  -0.000237   0.073463   0.168374   0.095926
   32  H  3  S    0.000598   0.002239   0.017235   0.079286   0.065672
   33  H  4  S   -0.000183  -0.000265   0.076009   0.149278  -0.251885
   34  H  4  S   -0.000283   0.002080   0.011149   0.069613  -0.200121
   35  H  5  S    0.000163  -0.000035   0.093618  -0.147801  -0.111958
   36  H  5  S    0.003067   0.000343   0.013972  -0.066234  -0.091454
   37  H  6  S    0.000221   0.000020   0.110080  -0.115142  -0.024107
   38  H  6  S    0.002896   0.000756   0.020175  -0.051072  -0.026802

                      6          7          8          9         10
                   -0.4653    -0.4348    -0.1846    -0.0948     0.1572
                     A          A          A          A          A   
    1  C  1  S   -0.019533  -0.003579   0.093741   0.000308  -0.093810
    2  C  1  S    0.035836   0.018734  -0.214522  -0.009043   0.075338
    3  C  1  X    0.174945  -0.285252  -0.130311   0.028113   0.164776
    4  C  1  Y    0.243270   0.165969   0.381358  -0.066370   0.024003
    5  C  1  Z    0.245748   0.198551  -0.358490  -0.088301  -0.180987
    6  C  1  S    0.072703  -0.028137  -0.343104   0.050768   1.836972
    7  C  1  X    0.060147  -0.112659  -0.109513   0.014364   0.299015
    8  C  1  Y    0.109110   0.069425   0.289008  -0.058904   0.256496
    9  C  1  Z    0.099232   0.108394  -0.278234  -0.100514  -0.717503
   10  C  1 XX    0.001820   0.014240   0.010700  -0.004298  -0.003088
   11  C  1 YY    0.022336   0.005205   0.002176  -0.005078  -0.011626
   12  C  1 ZZ   -0.025551  -0.025891   0.005327   0.010135  -0.009688
   13  C  1 XY    0.017023  -0.012321   0.004681  -0.022805   0.000158
   14  C  1 XZ   -0.008204   0.013016  -0.000620  -0.022399   0.007416
   15  C  1 YZ   -0.004134  -0.007560   0.002250   0.002851  -0.002508
   16  C  2  S    0.002809  -0.027250  -0.021869   0.003098  -0.062339
   17  C  2  S   -0.003013   0.059436   0.049323  -0.004135   0.124464
   18  C  2  X   -0.192180   0.297017   0.061369  -0.085216  -0.056959
   19  C  2  Y   -0.051100   0.185742  -0.058881   0.414014   0.074138
   20  C  2  Z    0.172956   0.000958   0.059860   0.411575  -0.092764
   21  C  2  S   -0.013574   0.084793   0.012409  -0.048339   0.626442
   22  C  2  X   -0.086828   0.143007  -0.000109  -0.093398  -0.544345
   23  C  2  Y   -0.030943   0.100887  -0.037583   0.397061   0.159103
   24  C  2  Z    0.085705  -0.012445   0.029572   0.400530  -0.232449
   25  C  2 XX    0.002579  -0.003434   0.006298   0.003083   0.009998
   26  C  2 YY    0.003524  -0.006747  -0.004723  -0.000229  -0.003156
   27  C  2 ZZ   -0.000200  -0.000944  -0.007832  -0.000623  -0.010573
   28  C  2 XY    0.019854  -0.007294   0.016601  -0.002857   0.000857
   29  C  2 XZ    0.000804   0.020227  -0.017150  -0.007079  -0.002928
   30  C  2 YZ   -0.001355   0.000210   0.007981  -0.000847  -0.002876
   31  H  3  S    0.153840  -0.185597   0.073729   0.007213   0.014829
   32  H  3  S    0.126040  -0.159724   0.089600   0.016223  -0.391662
   33  H  4  S   -0.060664   0.046488  -0.100603  -0.010263  -0.008483
   34  H  4  S   -0.045881   0.036005  -0.148673  -0.006228  -0.929675
   35  H  5  S    0.227933  -0.000555   0.082342  -0.099195  -0.005357
   36  H  5  S    0.216665   0.008032   0.084813  -0.175240  -0.972676
   37  H  6  S   -0.157649  -0.206484   0.054839   0.126896  -0.058418
   38  H  6  S   -0.151734  -0.220463   0.045694   0.234357  -1.375886

                     11         12         13         14         15
                    0.1979     0.2049     0.2485     0.3578     0.5568
                     A          A          A          A          A   
    1  C  1  S    0.077240   0.020634   0.046982  -0.075929  -0.013147
    2  C  1  S   -0.064854  -0.019781  -0.043983   0.018808  -0.143245
    3  C  1  X   -0.009828  -0.056384   0.005586  -0.220930   0.607816
    4  C  1  Y   -0.082995  -0.297319  -0.081402  -0.094204  -0.085429
    5  C  1  Z    0.078885  -0.246676   0.005967   0.036316  -0.079736
    6  C  1  S   -1.313717  -0.424228  -1.091517   2.505866  -0.458415
    7  C  1  X    0.143111  -0.128623   0.051861  -2.286129  -0.672782
    8  C  1  Y   -0.291501  -0.892365  -0.706641   0.017154  -0.030569
    9  C  1  Z    0.355157  -0.720315   0.456062  -0.308541   0.094719
   10  C  1 XX    0.013066   0.010029  -0.008401  -0.021246  -0.075782
   11  C  1 YY    0.005190   0.003559   0.005998   0.005864   0.020194
   12  C  1 ZZ    0.002004  -0.007678   0.004062   0.010408   0.029809
   13  C  1 XY    0.000234   0.010434  -0.017127   0.003813   0.023089
   14  C  1 XZ   -0.000923   0.001764   0.015059   0.001754  -0.018933
   15  C  1 YZ    0.010558  -0.002147  -0.004255   0.010348   0.003558
   16  C  2  S   -0.123264   0.004285  -0.015833   0.071954  -0.025865
   17  C  2  S    0.131052   0.012524  -0.018963  -0.075703  -0.213372
   18  C  2  X   -0.164099   0.052510   0.107985  -0.220993  -0.513512
   19  C  2  Y   -0.026699  -0.047636   0.268613   0.062986  -0.012579
   20  C  2  Z    0.009066   0.086147  -0.255184  -0.100197  -0.096322
   21  C  2  S    2.235862  -0.212436   0.469689  -2.128913   0.100924
   22  C  2  X   -0.364998   0.176873   0.786958  -2.271638   1.310062
   23  C  2  Y   -0.100453   0.041632   1.092849   0.555078  -0.057691
   24  C  2  Z    0.041355   0.384731  -0.921072  -0.746174   0.185460
   25  C  2 XX   -0.012805   0.000244  -0.005326   0.003298  -0.083887
   26  C  2 YY   -0.005312   0.016438   0.000981  -0.005822   0.017845
   27  C  2 ZZ   -0.004680  -0.013798  -0.003336  -0.006196   0.008944
   28  C  2 XY   -0.003690  -0.015639   0.003701  -0.016552   0.014653
   29  C  2 XZ    0.001616  -0.004230  -0.007907   0.014388  -0.036041
   30  C  2 YZ    0.000276  -0.007901  -0.000781   0.013013  -0.016891
   31  H  3  S   -0.060483  -0.012076   0.013951  -0.068312   0.089253
   32  H  3  S   -1.517120  -0.055587   1.699812  -0.232323   0.187971
   33  H  4  S   -0.037801   0.033036  -0.034683  -0.010230   0.082109
   34  H  4  S   -1.042783   0.541229  -1.570546  -0.911434   0.218335
   35  H  5  S    0.017313   0.084149  -0.032555   0.061976   0.098350
   36  H  5  S    0.759277   1.489616   0.776930   0.611917   0.030124
   37  H  6  S    0.010611  -0.099484  -0.026140   0.099990   0.172412
   38  H  6  S    0.630189  -1.150829   0.159197  -0.000114  -0.324573

                     16         17         18         19         20
                    0.6275     0.6464     0.6810     0.7313     0.7648
                     A          A          A          A          A   
    1  C  1  S    0.002477   0.025868   0.001320  -0.023955  -0.023836
    2  C  1  S   -0.026724  -0.300411  -0.089568   0.232355  -0.141919
    3  C  1  X   -0.115744  -0.114964   0.094432  -0.617226  -0.089395
    4  C  1  Y   -0.391652   0.614581   0.232222   0.143144   0.491677
    5  C  1  Z   -0.509474  -0.695686   0.226647   0.137093   0.000969
    6  C  1  S   -0.035030   0.078202   0.240068  -0.645847   0.476086
    7  C  1  X    0.391652  -0.015301  -0.221936   0.772610  -0.379922
    8  C  1  Y    0.734389  -0.681465  -0.468086  -0.149606  -1.189710
    9  C  1  Z    0.928674   0.804677  -0.573350  -0.187673   0.084346
   10  C  1 XX   -0.027010  -0.059023   0.011153  -0.080997  -0.077359
   11  C  1 YY   -0.073754  -0.014279   0.012825   0.011740   0.039720
   12  C  1 ZZ    0.086205  -0.014108  -0.034931   0.045957  -0.023872
   13  C  1 XY   -0.024999   0.016565   0.041952   0.017054  -0.049431
   14  C  1 XZ    0.020835  -0.009938   0.027538  -0.042662   0.038665
   15  C  1 YZ    0.019627   0.009356  -0.006358  -0.003907  -0.030083
   16  C  2  S    0.008298   0.006941  -0.007523   0.077544   0.007494
   17  C  2  S   -0.080035  -0.127797  -0.033032   0.311616  -0.172669
   18  C  2  X    0.035176  -0.019078   0.137002  -0.499861  -0.308048
   19  C  2  Y   -0.429097   0.172660  -0.608294  -0.020284  -0.392201
   20  C  2  Z   -0.226797  -0.107992  -0.709437  -0.220011   0.380760
   21  C  2  S    0.397139   0.323605  -0.137149  -0.708074  -0.002789
   22  C  2  X    0.026728  -0.189354  -0.351216   1.163857   0.264924
   23  C  2  Y    0.323310  -0.328405   0.774634  -0.045850   1.471674
   24  C  2  Z   -0.068023   0.227617   1.007389   0.470400  -1.275559
   25  C  2 XX    0.037558   0.017220  -0.033949   0.137832   0.058292
   26  C  2 YY   -0.029046  -0.019870   0.009284   0.012114  -0.015226
   27  C  2 ZZ   -0.012205  -0.009437  -0.002437   0.024593  -0.073238
   28  C  2 XY   -0.000609  -0.020423  -0.020262  -0.001711   0.094758
   29  C  2 XZ   -0.037485   0.010291  -0.008404   0.045151  -0.056113
   30  C  2 YZ    0.016973   0.010000   0.008483  -0.121077   0.039307
   31  H  3  S    0.109403  -0.231620  -0.119411   0.431688   0.357895
   32  H  3  S   -0.045214  -0.283599  -0.058865   0.335200   0.417070
   33  H  4  S   -0.135717   0.159597  -0.007726   0.539340  -0.474156
   34  H  4  S   -0.026865   0.083673   0.029514   0.254222  -0.561282
   35  H  5  S   -0.400865   0.131029   0.152891  -0.032650  -0.116101
   36  H  5  S   -0.121602   0.143674  -0.116661  -0.020129   0.510613
   37  H  6  S    0.323979   0.089886  -0.214813   0.168629  -0.132984
   38  H  6  S    0.076176   0.155548   0.280197  -0.239918  -0.344950

                     21         22         23         24         25
                    0.9237     0.9564     0.9739     1.0417     1.0661
                     A          A          A          A          A   
    1  C  1  S    0.008003  -0.035818  -0.020333   0.020498  -0.030316
    2  C  1  S    0.346760   0.260604  -0.480429  -1.035473   0.703124
    3  C  1  X    0.055817  -0.039952  -0.637711  -0.096336  -0.054798
    4  C  1  Y   -0.382576  -0.034882  -0.399030  -0.220530   0.079773
    5  C  1  Z   -0.581037  -0.134514   0.038163   0.197516  -0.120185
    6  C  1  S   -0.546940  -0.419614   0.486879   2.348018  -2.284838
    7  C  1  X   -0.483777   0.068138   1.609349  -0.152056   0.920916
    8  C  1  Y    0.255681   0.303830   0.831541   0.327784  -0.067043
    9  C  1  Z    1.110695  -0.099087  -0.290899  -0.365582   0.125046
   10  C  1 XX    0.058135  -0.056098  -0.124006  -0.073857  -0.004644
   11  C  1 YY    0.111317   0.057524   0.058889  -0.005471   0.065690
   12  C  1 ZZ   -0.116754   0.004182  -0.060789  -0.041046   0.011889
   13  C  1 XY    0.083300  -0.070057   0.092156   0.021329  -0.010611
   14  C  1 XZ    0.057371   0.054277  -0.036028   0.039917  -0.039689
   15  C  1 YZ   -0.042424  -0.046443  -0.000377   0.010995   0.003454
   16  C  2  S    0.034660   0.010276  -0.033957   0.009564   0.006360
   17  C  2  S    0.390295   0.025064  -0.601007  -0.571879  -1.662892
   18  C  2  X    0.015845  -0.059366  -0.576873   0.572384   0.051200
   19  C  2  Y   -0.178321   0.681989   0.060947   0.138914  -0.032538
   20  C  2  Z    0.196881  -0.658554  -0.064318  -0.037294   0.076639
   21  C  2  S   -1.012642  -0.198870   1.689996   0.709898   4.243398
   22  C  2  X   -0.028657  -0.129053   1.112399  -1.019380   0.352902
   23  C  2  Y    0.669120  -1.287183  -0.348743  -0.098920  -0.236756
   24  C  2  Z   -0.607903   1.248108   0.293736  -0.069705   0.173187
   25  C  2 XX    0.050790   0.106134  -0.009880  -0.085484  -0.087900
   26  C  2 YY    0.024194  -0.027607  -0.037927   0.010360  -0.087754
   27  C  2 ZZ    0.004463  -0.058162  -0.041454  -0.025977  -0.084176
   28  C  2 XY   -0.037637   0.107120  -0.078974   0.075549  -0.010699
   29  C  2 XZ   -0.047070  -0.090028   0.038432  -0.095716   0.045297
   30  C  2 YZ   -0.069007   0.046859   0.095357  -0.077335  -0.028876
   31  H  3  S    0.242455   0.454722  -0.461947   0.720791   0.115745
   32  H  3  S    0.444737  -1.287692   0.379595  -1.253702  -0.942301
   33  H  4  S    0.205603  -0.600961  -0.369191   0.147963   0.444956
   34  H  4  S   -0.494359   1.614617   0.362894  -0.421110  -1.085933
   35  H  5  S    0.582621  -0.180925   0.442329   0.496033  -0.329526
   36  H  5  S   -0.630911   0.088263  -1.632625  -0.879077   0.304339
   37  H  6  S   -0.681676  -0.397087  -0.124832   0.314584  -0.374805
   38  H  6  S    1.714094   0.455336  -0.489027  -0.653900   0.303710

                     26         27         28         29         30
                    1.3307     1.6047     1.7217     1.7984     1.9176
                     A          A          A          A          A   
    1  C  1  S   -0.118735  -0.065142  -0.028198   0.012795  -0.041495
    2  C  1  S   -1.548096  -0.706685  -0.295461   0.179359  -0.373291
    3  C  1  X    0.073232   0.024087   0.020436   0.010947   0.048042
    4  C  1  Y   -0.149028   0.061348  -0.008954   0.039422   0.107879
    5  C  1  Z   -0.031269   0.134593   0.018260  -0.047194  -0.047203
    6  C  1  S    5.399146   2.503151   1.048606  -0.558642   1.454874
    7  C  1  X   -1.123584  -0.400994  -0.154881   0.113483  -0.496715
    8  C  1  Y    1.190572   0.636266   0.396012  -0.044453  -0.094837
    9  C  1  Z   -1.193856  -0.706758  -0.225047   0.327252  -0.172979
   10  C  1 XX   -0.034502  -0.068859  -0.062437   0.147167   0.363678
   11  C  1 YY    0.002019  -0.243598   0.240443  -0.105018  -0.333289
   12  C  1 ZZ   -0.210282   0.225906  -0.214408  -0.033887  -0.074370
   13  C  1 XY   -0.203473   0.278939  -0.067071   0.294681   0.400790
   14  C  1 XZ   -0.179933   0.389792   0.287512  -0.219543  -0.433612
   15  C  1 YZ   -0.143305  -0.179012   0.668312  -0.412566   0.459356
   16  C  2  S    0.030814   0.012364   0.016574  -0.010255   0.011693
   17  C  2  S    0.343986   0.041642   0.166144  -0.068760   0.027969
   18  C  2  X   -0.089013  -0.101673  -0.039258   0.038185  -0.044580
   19  C  2  Y   -0.042252   0.092065   0.025228   0.047255   0.124913
   20  C  2  Z    0.029623   0.116159   0.012991  -0.058554  -0.081933
   21  C  2  S   -3.026438  -1.154127  -0.901740   0.503220  -0.838457
   22  C  2  X   -1.566021  -0.717338  -0.173871   0.064539  -0.230852
   23  C  2  Y   -0.344822  -0.361136  -0.222562   0.134551   0.552083
   24  C  2  Z    0.021365   0.140645   0.153700  -0.167056  -0.609528
   25  C  2 XX   -0.049050   0.078715  -0.005258  -0.079229  -0.110863
   26  C  2 YY    0.037675   0.033901   0.476229   0.678617  -0.139050
   27  C  2 ZZ    0.066180  -0.101184  -0.468691  -0.609964   0.245107
   28  C  2 XY    0.173789  -0.355175  -0.063897   0.005634  -0.330168
   29  C  2 XZ    0.155157  -0.437099   0.062964   0.248167   0.094934
   30  C  2 YZ   -0.090535  -0.147577   0.166550  -0.174617  -0.126786
   31  H  3  S   -0.122689  -0.146031   0.038355   0.062015   0.465717
   32  H  3  S   -0.177583  -0.189165   0.020403  -0.043671   0.151516
   33  H  4  S    0.307170   0.179763   0.206581  -0.256140  -0.410541
   34  H  4  S    0.034811   0.075521   0.196692  -0.095680  -0.193524
   35  H  5  S   -0.598469  -0.454819  -0.229021  -0.072118  -0.246500
   36  H  5  S   -0.819436  -0.345261  -0.242767   0.037835  -0.003554
   37  H  6  S   -0.696071  -0.338083  -0.104610   0.159927  -0.289476
   38  H  6  S   -0.450795  -0.338758  -0.027257   0.174930  -0.228523

                     31         32         33         34         35
                    2.1395     2.2096     2.3416     2.4506     2.6500
                     A          A          A          A          A   
    1  C  1  S    0.001962   0.016675   0.002528  -0.023894   0.000847
    2  C  1  S   -0.255211   0.338424   0.046278  -0.125102   0.071500
    3  C  1  X    0.282522  -0.084695  -0.050940  -0.038393   0.010997
    4  C  1  Y   -0.072567   0.038317  -0.099950  -0.022492  -0.057510
    5  C  1  Z    0.103737  -0.024435  -0.030828  -0.070983   0.096313
    6  C  1  S   -0.307802  -0.778487  -0.181076   0.763585  -0.215095
    7  C  1  X   -0.061020   0.388291  -0.072936  -0.182966   0.076808
    8  C  1  Y   -0.067409   0.028771  -0.281494  -0.089995   0.009108
    9  C  1  Z   -0.000231   0.232448  -0.157205  -0.413896   0.137088
   10  C  1 XX    0.507282  -0.135250  -0.019597  -0.068004   0.185376
   11  C  1 YY   -0.279730   0.388316  -0.754334  -0.193856   0.083183
   12  C  1 ZZ   -0.395263  -0.230708   0.765003   0.266997  -0.298908
   13  C  1 XY   -0.125152   0.026593  -0.349143   0.612186   0.544597
   14  C  1 XZ    0.296945   0.063195  -0.167004   0.570406  -0.380188
   15  C  1 YZ   -0.033385   0.180621   0.304985   0.076434   0.113665
   16  C  2  S   -0.035550  -0.041349  -0.012652   0.009867  -0.000885
   17  C  2  S   -0.446945  -0.105573  -0.126777   0.054213   0.055635
   18  C  2  X   -0.265164   0.007132  -0.080226  -0.038419   0.045490
   19  C  2  Y    0.036135  -0.007949  -0.058069   0.071443  -0.052267
   20  C  2  Z   -0.065731  -0.015721   0.043535   0.056373   0.056308
   21  C  2  S    0.932900   1.137729   0.294849  -0.524732   0.072679
   22  C  2  X    0.552513  -0.180409  -0.021420  -0.310086   0.052696
   23  C  2  Y   -0.066429  -0.083900   0.101234   0.181404  -0.077466
   24  C  2  Z    0.133245  -0.028320   0.042369   0.148463   0.040065
   25  C  2 XX    0.589750  -0.119335   0.111601  -0.204050   0.463590
   26  C  2 YY   -0.451518  -0.002921   0.142709  -0.084900  -0.167864
   27  C  2 ZZ   -0.347672   0.090967  -0.261911   0.306729  -0.283789
   28  C  2 XY   -0.006255   0.191113   0.333806   0.588030   0.672639
   29  C  2 XZ    0.256667  -0.165548  -0.114656   0.553977  -0.625618
   30  C  2 YZ   -0.194004  -0.945769  -0.227876   0.031386   0.264919
   31  H  3  S   -0.067257  -0.532381  -0.337707   0.000136  -0.486913
   32  H  3  S   -0.063036  -0.121627   0.068242  -0.015615   0.194360
   33  H  4  S   -0.050463  -0.518677   0.025037  -0.022143   0.521717
   34  H  4  S   -0.009585  -0.048051  -0.129474   0.015229  -0.179102
   35  H  5  S    0.183183  -0.138005   0.623956  -0.188339  -0.258951
   36  H  5  S   -0.054411   0.077777  -0.107726   0.029444   0.125167
   37  H  6  S    0.291689   0.207146  -0.531357  -0.198963   0.134331
   38  H  6  S   -0.206681   0.059417   0.189520  -0.093364   0.011501

                     36         37         38
                    2.7858     4.2594     4.3854
                     A          A          A   
    1  C  1  S    0.068384  -0.342044  -0.350355
    2  C  1  S   -0.201434   2.004995   2.098290
    3  C  1  X    0.608310  -0.090332   0.285528
    4  C  1  Y   -0.089114  -0.033533  -0.084774
    5  C  1  Z    0.117308   0.039706   0.105440
    6  C  1  S   -1.805779   1.534637   2.027332
    7  C  1  X    1.065566   0.005347  -0.259080
    8  C  1  Y   -0.089577   0.237893   0.267648
    9  C  1  Z    0.147559  -0.331855  -0.287728
   10  C  1 XX   -0.986216  -1.176177  -1.677308
   11  C  1 YY    0.503898  -1.302014  -1.316204
   12  C  1 ZZ    0.535895  -1.262019  -1.327574
   13  C  1 XY    0.279478  -0.027671   0.059119
   14  C  1 XZ   -0.341370   0.031931  -0.080989
   15  C  1 YZ    0.075680  -0.008965   0.021513
   16  C  2  S   -0.075897  -0.342079   0.320447
   17  C  2  S    0.210376   2.253198  -2.045771
   18  C  2  X    0.604925   0.064342   0.255255
   19  C  2  Y   -0.072944   0.004498  -0.037192
   20  C  2  Z    0.129956   0.025069   0.059930
   21  C  2  S    1.810538   0.774122  -1.856227
   22  C  2  X    1.046311  -0.270338  -0.228859
   23  C  2  Y   -0.182872  -0.075135  -0.030736
   24  C  2  Z    0.279741  -0.015763  -0.006867
   25  C  2 XX    0.890347  -1.293115   1.594901
   26  C  2 YY   -0.512377  -1.337853   1.232616
   27  C  2 ZZ   -0.447598  -1.325207   1.247617
   28  C  2 XY   -0.267227  -0.033759  -0.078752
   29  C  2 XZ    0.440727   0.022358   0.103828
   30  C  2 YZ   -0.081277   0.025637  -0.019802
   31  H  3  S    0.037181   0.151140  -0.089366
   32  H  3  S    0.011109  -0.390903   0.269740
   33  H  4  S   -0.046457   0.143460  -0.097637
   34  H  4  S    0.098965  -0.276109   0.348108
   35  H  5  S   -0.084616   0.069819   0.048102
   36  H  5  S   -0.040102  -0.439200  -0.394794
   37  H  6  S   -0.144497   0.023980   0.043339
   38  H  6  S    0.038342  -0.441984  -0.304882
 ...... END OF ROHF CALCULATION ......
 STEP CPU TIME =     6.43 TOTAL CPU TIME =          6.5 (      0.1 MIN)
 TOTAL WALL CLOCK TIME=          7.9 SECONDS, CPU UTILIZATION IS    82.10%

     ---------------------------------------------------------------------
     PROPERTIES FOR THE BHHLYP   DFT FUNCTIONAL (ROHF TYPE) DENSITY MATRIX
     ---------------------------------------------------------------------

          -----------------
          ENERGY COMPONENTS
          -----------------

         WAVEFUNCTION NORMALIZATION =       1.0000000000

                ONE ELECTRON ENERGY =    -169.0127894399
                TWO ELECTRON ENERGY =      57.7968230916
           NUCLEAR REPULSION ENERGY =      32.8379083192
                                      ------------------
                       TOTAL ENERGY =     -78.3780580291

 ELECTRON-ELECTRON POTENTIAL ENERGY =      57.7968230916
  NUCLEUS-ELECTRON POTENTIAL ENERGY =    -246.9676923304
   NUCLEUS-NUCLEUS POTENTIAL ENERGY =      32.8379083192
                                      ------------------
             TOTAL POTENTIAL ENERGY =    -156.3329609195
               TOTAL KINETIC ENERGY =      77.9549028905
                 VIRIAL RATIO (V/T) =       2.0054282043

          ---------------------------------------
          MULLIKEN AND LOWDIN POPULATION ANALYSES
          ---------------------------------------

     ATOMIC MULLIKEN POPULATION IN EACH MOLECULAR ORBITAL

                      1          2          3          4          5

                  2.000000   2.000000   2.000000   2.000000   2.000000

    1             1.997234   0.000923   0.934806   0.507242   0.386066
    2             0.001581   1.998193   0.790152   0.773845   0.913403
    3             0.000019   0.000432   0.050161   0.245502   0.068432
    4            -0.000008   0.000394   0.048196   0.188123   0.513238
    5             0.000616   0.000012   0.072353   0.178819   0.109166
    6             0.000559   0.000046   0.104331   0.106469   0.009694

                      6          7          8          9

                  2.000000   2.000000   1.000000   1.000000

    1             0.785786   0.737807   0.914548   0.022259
    2             0.380467   0.610808   0.017687   0.902861
    3             0.185756   0.263960   0.014163   0.000373
    4             0.025831   0.013214   0.032408   0.000158
    5             0.424790  -0.000221   0.015421   0.027407
    6             0.197370   0.374431   0.005773   0.046942

     ATOMIC SPIN POPULATION (ALPHA MINUS BETA)
       ATOM         MULL.POP.                    LOW.POP.
    1 C             0.936807                     0.928153
    2 C             0.920548                     0.907326
    3 H             0.014536                     0.015435
    4 H             0.032566                     0.037668
    5 H             0.042828                     0.047792
    6 H             0.052714                     0.063627

               ----- POPULATIONS IN EACH AO -----
                             MULLIKEN      LOWDIN
              1  C  1  S      1.99390     1.97981
              2  C  1  S      0.68679     0.37540
              3  C  1  X      0.73248     0.65644
              4  C  1  Y      0.62112     0.56472
              5  C  1  Z      0.61733     0.55952
              6  C  1  S      0.68659     0.36452
              7  C  1  X      0.22066     0.38358
              8  C  1  Y      0.34250     0.43264
              9  C  1  Z      0.35152     0.44270
             10  C  1 XX      0.00411     0.16863
             11  C  1 YY      0.00225     0.15048
             12  C  1 ZZ      0.00738     0.15229
             13  C  1 XY      0.01140     0.02239
             14  C  1 XZ      0.00741     0.01543
             15  C  1 YZ      0.00122     0.00201
             16  C  2  S      1.99353     1.98046
             17  C  2  S      0.67982     0.36701
             18  C  2  X      0.73185     0.65619
             19  C  2  Y      0.65564     0.60853
             20  C  2  Z      0.64683     0.59923
             21  C  2  S      0.60918     0.34421
             22  C  2  X      0.22669     0.38078
             23  C  2  Y      0.41394     0.48224
             24  C  2  Z      0.40333     0.47726
             25  C  2 XX      0.01271     0.17833
             26  C  2 YY     -0.00569     0.13586
             27  C  2 ZZ     -0.00416     0.13863
             28  C  2 XY      0.00971     0.01958
             29  C  2 XZ      0.01009     0.02045
             30  C  2 YZ      0.00553     0.00822
             31  H  3  S      0.52137     0.47859
             32  H  3  S      0.30743     0.35493
             33  H  4  S      0.51347     0.46908
             34  H  4  S      0.30809     0.35642
             35  H  5  S      0.51234     0.47820
             36  H  5  S      0.31602     0.35892
             37  H  6  S      0.50249     0.47364
             38  H  6  S      0.34312     0.36269

          ----- MULLIKEN ATOMIC OVERLAP POPULATIONS -----
          (OFF-DIAGONAL ELEMENTS NEED TO BE MULTIPLIED BY 2)

             1           2           3           4           5

    1    5.2769276
    2    0.3467937   5.4553895
    3   -0.0377083   0.3798395   0.5135403
    4   -0.0371380   0.3792179  -0.0346551   0.5177520
    5    0.3687119  -0.0551968   0.0031224  -0.0008297   0.5829379
    6    0.3690836  -0.1170459   0.0046603  -0.0027927  -0.0703834

             6

    6    0.6620936

          TOTAL MULLIKEN AND LOWDIN ATOMIC POPULATIONS
       ATOM         MULL.POP.    CHARGE          LOW.POP.     CHARGE
    1 C             6.286671   -0.286671         6.270566   -0.270566
    2 C             6.388998   -0.388998         6.396962   -0.396962
    3 H             0.828799    0.171201         0.833522    0.166478
    4 H             0.821554    0.178446         0.825496    0.174504
    5 H             0.828362    0.171638         0.837125    0.162875
    6 H             0.845616    0.154384         0.836328    0.163672

          -------------------------------
          BOND ORDER AND VALENCE ANALYSIS     BOND ORDER THRESHOLD=0.050
          -------------------------------

                   BOND                       BOND                       BOND
  ATOM PAIR DIST  ORDER      ATOM PAIR DIST  ORDER      ATOM PAIR DIST  ORDER
    1   2  1.393  1.099        1   5  1.100  0.927        1   6  1.138  0.917
    2   3  1.079  0.940        2   4  1.091  0.924

                       TOTAL       BONDED        FREE
      ATOM            VALENCE     VALENCE     VALENCE
    1 C                 3.803       2.966       0.837
    2 C                 3.798       2.982       0.816
    3 H                 0.937       0.936       0.000
    4 H                 0.932       0.931       0.001
    5 H                 0.918       0.916       0.002
    6 H                 0.914       0.911       0.003

          -----------------------------------------
          ATOMIC SPIN DENSITY AT THE NUCLEUS (A.U.)
          -----------------------------------------
                            SPIN DENS    ALPHA DENS     BETA DENS
    1  C            6.0     0.4636839      59.18275      58.71906
    2  C            6.0     0.0257088      58.93509      58.90939
    3  H            1.0     0.0093929       0.21369       0.20429
    4  H            1.0     0.0178931       0.21311       0.19522
    5  H            1.0     0.0290119       0.21945       0.19044
    6  H            1.0     0.0335452       0.21646       0.18292

          ---------------------
          ELECTROSTATIC MOMENTS
          ---------------------

 POINT   1           X           Y           Z (BOHR)    CHARGE
                -1.297729    0.240853   -0.376422        0.00 (A.U.)
         DX          DY          DZ         /D/  (DEBYE)
    -0.096130    0.405452   -0.670937    0.789803
 ...... END OF PROPERTY EVALUATION ......
 STEP CPU TIME =     0.00 TOTAL CPU TIME =          6.5 (      0.1 MIN)
 TOTAL WALL CLOCK TIME=          7.9 SECONDS, CPU UTILIZATION IS    82.11%

 -----------------------------------------------------------------------
                    SFDFT CALCULATION FOR SCFTYP=ROHF
                          CODED BY NORIYUKI MINEZAWA
 -----------------------------------------------------------------------
  
 -TDDFT RUNTIME PARAMETERS-
    TRIPLET  = F
    NONEQ    = T
    NSTATE   =                    3
    IROOT    =                    2
    NTRIAL   =                    5
    MAXVEC   =                   50
    ILENG    =                  200
    MAXGRD   =                28861
    NRAD     =                   48
    NLEB     =                  110
 GAS PHASE COMPUTATION
  
 FOR AN EULER-MACLAURIN QUADRATURE USING  48 RADIAL POINTS:
 SMALLEST GAUSSIAN PRIMITIVE EXPONENT=        0.1612777588 OF TYPE -S-
 ON ATOM NUMBER   3 HAS RADIAL NORMALIZATION=  1.000000
  LARGEST GAUSSIAN PRIMITIVE EXPONENT=     3047.5248800000 OF TYPE -S-
 ON ATOM NUMBER   1 HAS RADIAL NORMALIZATION=  1.000000
  

          -----------------------------------------------
          SF-DFT INPUT PARAMETERS (EXTRACTED FROM $TDDFT)
          -----------------------------------------------

     NSTATE=       3  IROOT=       2 MAXVEC=      50
     NTRIAL=       5 CNVTOL=  1.00E-07

     ********** NOTE: THE CURRENT STATUS OF SFDFT **********

     (1) UHF AND ROHF REFERENCES ARE AVAILABLE.
     (2) COLLINEAR APPROXIMATION FOR XC FUNCTIONALS.
     (3) NEITHER LC NOR CAMB3LYP IS SUPPORTED.
     (4) INCORRECT ANALYTIC GRADIENT FOR META-GGA.
     (5) SOLVENT MODELS (EFP1 AND/OR C-PCM) ARE AVAILABLE.

     *******************************************************

 MEMORY REQUIRED FOR SFDFT   ITERATIONS IS    193756 WORDS.


 STATE      ITERATION      ENERGY         RESIDUE NORM
   1            1      -78.3509010020     0.05390993
   2            1      -78.3448504357     0.05330998
   3            1      -78.3235474392     0.11658790

 STATE      ITERATION      ENERGY         RESIDUE NORM
   1            2      -78.3531526138     0.00567623
   2            2      -78.3473207740     0.00686064
   3            2      -78.3437503994     0.02255996

 STATE      ITERATION      ENERGY         RESIDUE NORM
   1            3      -78.3531876894     0.00097008
   2            3      -78.3473770432     0.00129676
   3            3      -78.3442363172     0.00323303

 STATE      ITERATION      ENERGY         RESIDUE NORM
   1            4      -78.3531889914     0.00018091
   2            4      -78.3473789827     0.00019701
   3            4      -78.3442489687     0.00049799

 STATE      ITERATION      ENERGY         RESIDUE NORM
   1            5      -78.3531890205     0.00002710
   2            5      -78.3473790233     0.00003012
   3            5      -78.3442493057     0.00008018

 STATE      ITERATION      ENERGY         RESIDUE NORM
   1            6      -78.3531890214     0.00000535
   2            6      -78.3473790243     0.00000468
   3            6      -78.3442493151     0.00001561

 STATE      ITERATION      ENERGY         RESIDUE NORM
   1            7      -78.3531890215     0.00000083
   2            7      -78.3473790243     0.00000080
   3            7      -78.3442493154     0.00000228

 STATE      ITERATION      ENERGY         RESIDUE NORM
   1            8      -78.3531890215     0.00000010
   2            8      -78.3473790243     0.00000010
   3            8      -78.3442493154     0.00000026

 STATE      ITERATION      ENERGY         RESIDUE NORM
   1            9      -78.3531890215     0.00000001
   2            9      -78.3473790243     0.00000001
   3            9      -78.3442493154     0.00000003
  
   -----------------------------------  
     SPIN-FLIP CALCULATION CONVERGED
   -----------------------------------  
 NUMBER OF USED VECTORS / MAX =  29 / 150
 NUMBER OF ITERATIONS   / MAX =   9 / 100
 NUMBER OF SINGLE EXCITATIONS =   279
 NUMBER OF ATOMIC ORBITALS    =  38

     -----------------------------------
     ALPHA -> BETA SPIN-FLIP EXCITATIONS
     -----------------------------------

 STATE #   1  ENERGY =    0.676720 EV
 SYMMETRY OF STATE   =    A   
 S-SQUARED           =    1.4106
        DRF    COEF       OCC(A)    VIR(B)
        ---    ----       ------    ------
          8  0.210090         8  ->     8
         18  0.975622         9  ->     9

 STATE #   2  ENERGY =    0.834818 EV
 SYMMETRY OF STATE   =    A   
 S-SQUARED           =    0.5921
        DRF    COEF       OCC(A)    VIR(B)
        ---    ----       ------    ------
          8 -0.967106         8  ->     8
          9 -0.136493         9  ->     8
         18  0.202193         9  ->     9

 STATE #   3  ENERGY =    0.919982 EV
 SYMMETRY OF STATE   =    A   
 S-SQUARED           =    0.0841
        DRF    COEF       OCC(A)    VIR(B)
        ---    ----       ------    ------
          6  0.182621         6  ->     8
          7 -0.161609         7  ->     8
          8 -0.131349         8  ->     8
          9  0.948707         9  ->     8
         18  0.064174         9  ->     9
         54 -0.072066         9  ->    13
         90 -0.094729         9  ->    17

          ----------------------------
          SUMMARY OF SPIN-FLIP RESULTS
          ----------------------------

   STATE             ENERGY     EXCITATION     S-SQUARED

 0 NEGATIVE ROOT(S) FOUND.
   0  A          -78.3780580291    0.000               (REFERENCE STATE)
   1  A          -78.3531890215    0.677        1.4106
   2  A          -78.3473790243    0.835        0.5921
   3  A          -78.3442493154    0.920        0.0841
  
 SELECTING EXCITED STATE IROOT=   2 AT E=      -78.3473790243
 AS THE STATE OF INTEREST.

 ..... DONE WITH SFDFT   EXCITATION ENERGIES .....
 STEP CPU TIME =     0.07 TOTAL CPU TIME =          6.6 (      0.1 MIN)
 TOTAL WALL CLOCK TIME=          8.0 SECONDS, CPU UTILIZATION IS    82.25%

 -----------------------------------------------------------------------
                   SF-DFT ENERGY GRADIENT CALCULATION
 -----------------------------------------------------------------------

    -------------------------
       START Z-VECTOR LOOP
    -------------------------
 INITIAL ERROR =    2.644E-03 / 1.000E-10
 ITER# 1 ERROR =    1.883E-04 / 1.000E-10
 ITER# 2 ERROR =    2.609E-05 / 1.000E-10
 ITER# 3 ERROR =    1.190E-06 / 1.000E-10
 ITER# 4 ERROR =    1.528E-07 / 1.000E-10
 ITER# 5 ERROR =    3.002E-08 / 1.000E-10
 ITER# 6 ERROR =    3.406E-09 / 1.000E-10
 ITER# 7 ERROR =    2.646E-10 / 1.000E-10
 ITER# 8 ERROR =    1.141E-11 / 1.000E-10
    -------------------------
        Z-VECTOR CONVERGED          
    -------------------------
 ..... DONE WITH SF-DFT EXCITED STATE RESPONSE AND DENSITY MATRIX .....
 STEP CPU TIME =     4.78 TOTAL CPU TIME =         11.4 (      0.2 MIN)
 TOTAL WALL CLOCK TIME=         12.8 SECONDS, CPU UTILIZATION IS    88.89%

     ------------------------------------------
     PROPERTIES FOR THE BHHLYP   DFT FUNCTIONAL
      USING THE RELAXED DENSITY OF EXCITED STATE    2
     ------------------------------------------

          -----------------
          ENERGY COMPONENTS
          -----------------

         WAVEFUNCTION NORMALIZATION =       1.0000000000

                ONE ELECTRON ENERGY =    -168.9596218535
                TWO ELECTRON ENERGY =      57.7743345100
           NUCLEAR REPULSION ENERGY =      32.8379083192
                                      ------------------
                       TOTAL ENERGY =     -78.3473790243

 ELECTRON-ELECTRON POTENTIAL ENERGY =      57.7743345100
  NUCLEUS-ELECTRON POTENTIAL ENERGY =    -246.8665659449
   NUCLEUS-NUCLEUS POTENTIAL ENERGY =      32.8379083192
                                      ------------------
             TOTAL POTENTIAL ENERGY =    -156.2543231157
               TOTAL KINETIC ENERGY =      77.9069440913
                 VIRIAL RATIO (V/T) =       2.0056533463

          ---------------------------------------
          MULLIKEN AND LOWDIN POPULATION ANALYSES
          ---------------------------------------

     ATOMIC MULLIKEN POPULATION IN EACH MOLECULAR ORBITAL

                      1          2          3          4          5

                  2.000000   2.000000   2.000000   2.000000   2.000000

    1             1.997234   0.000923   0.934806   0.507242   0.386066
    2             0.001581   1.998193   0.790152   0.773845   0.913403
    3             0.000019   0.000432   0.050161   0.245502   0.068432
    4            -0.000008   0.000394   0.048196   0.188123   0.513238
    5             0.000616   0.000012   0.072353   0.178819   0.109166
    6             0.000559   0.000046   0.104331   0.106469   0.009694

                      6          7          8          9

                  2.000000   2.000000   1.000000   1.000000

    1             0.785786   0.737807   0.914548   0.022259
    2             0.380467   0.610808   0.017687   0.902861
    3             0.185756   0.263960   0.014163   0.000373
    4             0.025831   0.013214   0.032408   0.000158
    5             0.424790  -0.000221   0.015421   0.027407
    6             0.197370   0.374431   0.005773   0.046942

     ATOMIC SPIN POPULATION (ALPHA MINUS BETA)
       ATOM         MULL.POP.                    LOW.POP.
    1 C            -0.800352                    -0.761678
    2 C             0.803881                     0.763209
    3 H            -0.015019                    -0.015655
    4 H            -0.032852                    -0.036730
    5 H             0.016139                     0.016631
    6 H             0.028202                     0.034224

               ----- POPULATIONS IN EACH AO -----
                             MULLIKEN      LOWDIN
              1  C  1  S      1.99389     1.98005
              2  C  1  S      0.68994     0.37641
              3  C  1  X      0.73907     0.66240
              4  C  1  Y      0.62700     0.57291
              5  C  1  Z      0.58202     0.52758
              6  C  1  S      0.69820     0.37379
              7  C  1  X      0.22077     0.38622
              8  C  1  Y      0.37017     0.46101
              9  C  1  Z      0.35457     0.44324
             10  C  1 XX      0.00406     0.17005
             11  C  1 YY      0.00047     0.14965
             12  C  1 ZZ      0.00707     0.15440
             13  C  1 XY      0.01044     0.02147
             14  C  1 XZ      0.00751     0.01534
             15  C  1 YZ      0.00122     0.00196
             16  C  2  S      1.99355     1.98051
             17  C  2  S      0.68363     0.36883
             18  C  2  X      0.73853     0.66283
             19  C  2  Y      0.65587     0.60837
             20  C  2  Z      0.63225     0.58444
             21  C  2  S      0.61031     0.34409
             22  C  2  X      0.23024     0.38082
             23  C  2  Y      0.40043     0.47382
             24  C  2  Z      0.40948     0.47654
             25  C  2 XX      0.01273     0.17928
             26  C  2 YY     -0.00586     0.13614
             27  C  2 ZZ     -0.00412     0.13901
             28  C  2 XY      0.01040     0.02125
             29  C  2 XZ      0.00975     0.01966
             30  C  2 YZ      0.00537     0.00807
             31  H  3  S      0.52117     0.47790
             32  H  3  S      0.30264     0.35252
             33  H  4  S      0.51153     0.46652
             34  H  4  S      0.30525     0.35513
             35  H  5  S      0.51391     0.48141
             36  H  5  S      0.31665     0.35846
             37  H  6  S      0.49629     0.46536
             38  H  6  S      0.34360     0.36256

          ----- MULLIKEN ATOMIC OVERLAP POPULATIONS -----
          (OFF-DIAGONAL ELEMENTS NEED TO BE MULTIPLIED BY 2)

             1           2           3           4           5

    1    5.2816148
    2    0.3648313   5.4482824
    3   -0.0368478   0.3752585   0.5165817
    4   -0.0422680   0.3695902  -0.0381480   0.5292298
    5    0.3672973  -0.0561003   0.0037202  -0.0029779   0.5940266
    6    0.3717674  -0.1192967   0.0032434   0.0013599  -0.0754105

             6

    6    0.6582266

          TOTAL MULLIKEN AND LOWDIN ATOMIC POPULATIONS
       ATOM         MULL.POP.    CHARGE          LOW.POP.     CHARGE
    1 C             6.306395   -0.306395         6.296461   -0.296461
    2 C             6.382565   -0.382565         6.383669   -0.383669
    3 H             0.823808    0.176192         0.830422    0.169578
    4 H             0.816786    0.183214         0.821652    0.178348
    5 H             0.830555    0.169445         0.839871    0.160129
    6 H             0.839890    0.160110         0.827925    0.172075

          -------------------------------
          BOND ORDER AND VALENCE ANALYSIS     BOND ORDER THRESHOLD=0.050
          -------------------------------

                   BOND                       BOND                       BOND
  ATOM PAIR DIST  ORDER      ATOM PAIR DIST  ORDER      ATOM PAIR DIST  ORDER
    1   2  1.393  1.141        1   5  1.100  0.918        1   6  1.138  0.918
    2   3  1.079  0.931        2   4  1.091  0.906

                       TOTAL       BONDED        FREE
      ATOM            VALENCE     VALENCE     VALENCE
    1 C                 3.780       2.992       0.788
    2 C                 3.809       2.985       0.824
    3 H                 0.933       0.925       0.008
    4 H                 0.928       0.908       0.019
    5 H                 0.915       0.904       0.011
    6 H                 0.915       0.902       0.013

          -----------------------------------------
          ATOMIC SPIN DENSITY AT THE NUCLEUS (A.U.)
          -----------------------------------------
                            SPIN DENS    ALPHA DENS     BETA DENS
    1  C            6.0    -0.4093753      58.75937      59.16875
    2  C            6.0    -0.0159962      58.92213      58.93813
    3  H            1.0    -0.0095538       0.20418       0.21374
    4  H            1.0    -0.0172843       0.19475       0.21203
    5  H            1.0     0.0063474       0.20898       0.20263
    6  H            1.0     0.0134376       0.20343       0.18999

          ---------------------
          ELECTROSTATIC MOMENTS
          ---------------------

 POINT   1           X           Y           Z (BOHR)    CHARGE
                -1.297729    0.240853   -0.376422       -0.00 (A.U.)
         DX          DY          DZ         /D/  (DEBYE)
    -0.316808    0.525055   -0.784948    0.996090
 ...... END OF PROPERTY EVALUATION ......
 STEP CPU TIME =     0.00 TOTAL CPU TIME =         11.4 (      0.2 MIN)
 TOTAL WALL CLOCK TIME=         12.8 SECONDS, CPU UTILIZATION IS    88.90%

 BEGINNING ONE ELECTRON GRADIENT...
 ..... END OF 1-ELECTRON GRADIENT ......
 STEP CPU TIME =     0.00 TOTAL CPU TIME =         11.4 (      0.2 MIN)
 TOTAL WALL CLOCK TIME=         12.8 SECONDS, CPU UTILIZATION IS    88.90%

          ----------------------
          GRADIENT OF THE ENERGY
          ----------------------
 MEMORY FOR GRID POINT CONTRIBUTIONS TO THE SF-DFT GRADIENT=   2869411 WORDS.
 STEP CPU TIME =     5.37 TOTAL CPU TIME =         16.7 (      0.3 MIN)
 TOTAL WALL CLOCK TIME=         18.2 SECONDS, CPU UTILIZATION IS    92.12%

 THE MINIMUM MEMORY REQUIRED FOR THIS RUN IS      84843 WORDS.
 USING    1060363 WORDS FOR 2E- DERIVATIVE INTEGRAL CONTRIBUTIONS.
 THE COARSE/FINE SCHWARZ SCREENINGS SKIPPED           10/          86 BLOCKS.
 THE NUMBER OF GRADIENT INTEGRAL BLOCKS COMPUTED WAS      9086
 ...... END OF 2-ELECTRON GRADIENT ......
 STEP CPU TIME =     0.07 TOTAL CPU TIME =         16.8 (      0.3 MIN)
 TOTAL WALL CLOCK TIME=         18.2 SECONDS, CPU UTILIZATION IS    92.15%

 BEGINNING GEOMETRY SEARCH POINT NSERCH=   0 ...

 COORDINATES OF ALL ATOMS ARE (ANGS)
   ATOM   CHARGE       X              Y              Z
 ------------------------------------------------------------
 C           6.0   0.0000000000   0.0000000000   0.0000000000
 C           6.0  -1.3466508300   0.1976150300  -0.2959276700
 H           1.0  -2.1187663500  -0.4024477900   0.1609286800
 H           1.0  -1.7386896900   0.8701628200  -1.0596557200
 H           1.0   0.5701557500   0.9400860400  -0.0228835500
 H           1.0   0.2212015600  -0.2158137800  -1.0951482300

          ********************
          1 ELECTRON INTEGRALS
          ********************
 ...... END OF ONE-ELECTRON INTEGRALS ......
 STEP CPU TIME =     0.00 TOTAL CPU TIME =         16.8 (      0.3 MIN)
 TOTAL WALL CLOCK TIME=         18.2 SECONDS, CPU UTILIZATION IS    92.15%

          --------------------
          2 ELECTRON INTEGRALS
          --------------------

 THE -PK- OPTION IS OFF, THE INTEGRALS ARE NOT IN SUPERMATRIX FORM.
 STORING   15000 INTEGRALS/RECORD ON DISK, USING 12 BYTES/INTEGRAL.
 TWO ELECTRON INTEGRAL EVALUATION REQUIRES   90532 WORDS OF MEMORY.
 SCHWARZ INEQUALITY OVERHEAD:       741 INTEGRALS, T=        0.00
 II,JST,KST,LST =  1  1  1  1 NREC =         1 INTLOC =    1
 II,JST,KST,LST =  2  1  1  1 NREC =         1 INTLOC =    2
 II,JST,KST,LST =  3  1  1  1 NREC =         1 INTLOC =   34
 II,JST,KST,LST =  4  1  1  1 NREC =         1 INTLOC =  214
 II,JST,KST,LST =  5  1  1  1 NREC =         1 INTLOC = 1189
 II,JST,KST,LST =  6  1  1  1 NREC =         1 INTLOC = 3244
 II,JST,KST,LST =  7  1  1  1 NREC =         2 INTLOC =  996
 II,JST,KST,LST =  8  1  1  1 NREC =         3 INTLOC = 8256
 II,JST,KST,LST =  9  1  1  1 NREC =         7 INTLOC = 6201
 II,JST,KST,LST = 10  1  1  1 NREC =         8 INTLOC = 6109
 II,JST,KST,LST = 11  1  1  1 NREC =         9 INTLOC = 7509
 II,JST,KST,LST = 12  1  1  1 NREC =        10 INTLOC =10490
 II,JST,KST,LST = 13  1  1  1 NREC =        12 INTLOC =  159
 II,JST,KST,LST = 14  1  1  1 NREC =        13 INTLOC = 6606
 II,JST,KST,LST = 15  1  1  1 NREC =        14 INTLOC =14952
 II,JST,KST,LST = 16  1  1  1 NREC =        16 INTLOC =10296
 SCHWARZ INEQUALITY TEST SKIPPED          10 INTEGRAL BLOCKS.
 TOTAL NUMBER OF NONZERO TWO-ELECTRON INTEGRALS =              262750
         18 INTEGRAL RECORDS WERE STORED ON DISK FILE  8.
  ...... END OF TWO-ELECTRON INTEGRALS .....
 STEP CPU TIME =     0.02 TOTAL CPU TIME =         16.8 (      0.3 MIN)
 TOTAL WALL CLOCK TIME=         18.2 SECONDS, CPU UTILIZATION IS    92.15%

 -----------------------------------------------------------------------
                    SFDFT CALCULATION FOR SCFTYP=ROHF
                          CODED BY NORIYUKI MINEZAWA
 -----------------------------------------------------------------------
  
 -TDDFT RUNTIME PARAMETERS-
    TRIPLET  = F
    NONEQ    = T
    NSTATE   =                    3
    IROOT    =                    3
    NTRIAL   =                    5
    MAXVEC   =                   50
    ILENG    =                  200
    MAXGRD   =                28861
    NRAD     =                   48
    NLEB     =                  110
 GAS PHASE COMPUTATION
  
 FOR AN EULER-MACLAURIN QUADRATURE USING  48 RADIAL POINTS:
 SMALLEST GAUSSIAN PRIMITIVE EXPONENT=        0.1612777588 OF TYPE -S-
 ON ATOM NUMBER   3 HAS RADIAL NORMALIZATION=  1.000000
  LARGEST GAUSSIAN PRIMITIVE EXPONENT=     3047.5248800000 OF TYPE -S-
 ON ATOM NUMBER   1 HAS RADIAL NORMALIZATION=  1.000000
  

          -----------------------------------------------
          SF-DFT INPUT PARAMETERS (EXTRACTED FROM $TDDFT)
          -----------------------------------------------

     NSTATE=       3  IROOT=       3 MAXVEC=      50
     NTRIAL=       5 CNVTOL=  1.00E-07

     ********** NOTE: THE CURRENT STATUS OF SFDFT **********

     (1) UHF AND ROHF REFERENCES ARE AVAILABLE.
     (2) COLLINEAR APPROXIMATION FOR XC FUNCTIONALS.
     (3) NEITHER LC NOR CAMB3LYP IS SUPPORTED.
     (4) INCORRECT ANALYTIC GRADIENT FOR META-GGA.
     (5) SOLVENT MODELS (EFP1 AND/OR C-PCM) ARE AVAILABLE.

     *******************************************************

 MEMORY REQUIRED FOR SFDFT   ITERATIONS IS    193756 WORDS.


 STATE      ITERATION      ENERGY         RESIDUE NORM
   1            1      -78.3509010020     0.05390993
   2            1      -78.3448504357     0.05330998
   3            1      -78.3235474392     0.11658790

 STATE      ITERATION      ENERGY         RESIDUE NORM
   1            2      -78.3531526138     0.00567623
   2            2      -78.3473207740     0.00686064
   3            2      -78.3437503994     0.02255996

 STATE      ITERATION      ENERGY         RESIDUE NORM
   1            3      -78.3531876894     0.00097008
   2            3      -78.3473770432     0.00129676
   3            3      -78.3442363172     0.00323303

 STATE      ITERATION      ENERGY         RESIDUE NORM
   1            4      -78.3531889914     0.00018091
   2            4      -78.3473789827     0.00019701
   3            4      -78.3442489687     0.00049799

 STATE      ITERATION      ENERGY         RESIDUE NORM
   1            5      -78.3531890205     0.00002710
   2            5      -78.3473790233     0.00003012
   3            5      -78.3442493057     0.00008018

 STATE      ITERATION      ENERGY         RESIDUE NORM
   1            6      -78.3531890214     0.00000535
   2            6      -78.3473790243     0.00000468
   3            6      -78.3442493151     0.00001561

 STATE      ITERATION      ENERGY         RESIDUE NORM
   1            7      -78.3531890215     0.00000083
   2            7      -78.3473790243     0.00000080
   3            7      -78.3442493154     0.00000228

 STATE      ITERATION      ENERGY         RESIDUE NORM
   1            8      -78.3531890215     0.00000010
   2            8      -78.3473790243     0.00000010
   3            8      -78.3442493154     0.00000026

 STATE      ITERATION      ENERGY         RESIDUE NORM
   1            9      -78.3531890215     0.00000001
   2            9      -78.3473790243     0.00000001
   3            9      -78.3442493154     0.00000003
  
   -----------------------------------  
     SPIN-FLIP CALCULATION CONVERGED
   -----------------------------------  
 NUMBER OF USED VECTORS / MAX =  29 / 150
 NUMBER OF ITERATIONS   / MAX =   9 / 100
 NUMBER OF SINGLE EXCITATIONS =   279
 NUMBER OF ATOMIC ORBITALS    =  38

     -----------------------------------
     ALPHA -> BETA SPIN-FLIP EXCITATIONS
     -----------------------------------

 STATE #   1  ENERGY =    0.676720 EV
 SYMMETRY OF STATE   =    A   
 S-SQUARED           =    1.4106
        DRF    COEF       OCC(A)    VIR(B)
        ---    ----       ------    ------
          8  0.210090         8  ->     8
         18  0.975622         9  ->     9

 STATE #   2  ENERGY =    0.834818 EV
 SYMMETRY OF STATE   =    A   
 S-SQUARED           =    0.5921
        DRF    COEF       OCC(A)    VIR(B)
        ---    ----       ------    ------
          8 -0.967106         8  ->     8
          9 -0.136493         9  ->     8
         18  0.202193         9  ->     9

 STATE #   3  ENERGY =    0.919982 EV
 SYMMETRY OF STATE   =    A   
 S-SQUARED           =    0.0841
        DRF    COEF       OCC(A)    VIR(B)
        ---    ----       ------    ------
          6  0.182621         6  ->     8
          7 -0.161609         7  ->     8
          8 -0.131349         8  ->     8
[...]
                     A          A          A          A          A   
    1  C  1  S    0.994002  -0.012992  -0.155270   0.103505   0.023688
    2  C  1  S    0.040911  -0.000578   0.298833  -0.201822  -0.058300
    3  C  1  X   -0.000417   0.000449  -0.101893  -0.129300   0.263174
    4  C  1  Y    0.000522  -0.000076   0.052035  -0.078171   0.133722
    5  C  1  Z   -0.000843   0.000077  -0.085383   0.073399  -0.032312
    6  C  1  S   -0.015742   0.002432   0.244453  -0.237430  -0.020738
    7  C  1  X    0.001602  -0.001610  -0.012411  -0.037573   0.081861
    8  C  1  Y   -0.001922   0.000029   0.022969  -0.037892   0.054322
    9  C  1  Z    0.002594   0.000210  -0.032916   0.041432  -0.016094
   10  C  1 XX   -0.006109  -0.000315   0.006628   0.011560  -0.013212
   11  C  1 YY   -0.006393   0.000046  -0.006101  -0.005436   0.014269
   12  C  1 ZZ   -0.006436  -0.000033   0.000269  -0.005956   0.005144
   13  C  1 XY    0.000050   0.000053   0.002611  -0.010598   0.004680
   14  C  1 XZ    0.000029  -0.000090   0.003849   0.005684  -0.001579
   15  C  1 YZ    0.000022   0.000039   0.000618  -0.001027  -0.004895
   16  C  2  S    0.012627   0.993765  -0.148236  -0.130973   0.004578
   17  C  2  S    0.000306   0.040820   0.281647   0.255851  -0.012239
   18  C  2  X   -0.000238   0.000337   0.108073  -0.188350  -0.176773
   19  C  2  Y   -0.000019  -0.000120  -0.013084  -0.007498   0.255816
   20  C  2  Z   -0.000082  -0.000096   0.009749  -0.020118  -0.264430
   21  C  2  S    0.005069  -0.011691   0.213220   0.294768  -0.017727
   22  C  2  X    0.002600  -0.000474   0.010293  -0.051599  -0.061619
   23  C  2  Y    0.000407   0.000344  -0.000096   0.002179   0.110163
   24  C  2  Z    0.000206  -0.000065  -0.005835  -0.014322  -0.114267
   25  C  2 XX   -0.000413  -0.006233   0.013854  -0.005322  -0.009182
   26  C  2 YY   -0.000184  -0.006726  -0.007787   0.003457   0.006012
   27  C  2 ZZ   -0.000219  -0.006744  -0.006366   0.002529   0.012509
   28  C  2 XY    0.000142  -0.000024  -0.001316   0.004552  -0.003284
   29  C  2 XZ   -0.000076   0.000095   0.002373  -0.000509   0.005647
   30  C  2 YZ   -0.000003  -0.000170  -0.008803  -0.016883  -0.009770
   31  H  3  S   -0.000074  -0.000227   0.071290   0.167725  -0.078128
   32  H  3  S    0.000597   0.002211   0.016305   0.079678  -0.053188
   33  H  4  S   -0.000176  -0.000255   0.073792   0.149873   0.245134
   34  H  4  S   -0.000264   0.002060   0.010147   0.070604   0.196563
   35  H  5  S    0.000152  -0.000031   0.092661  -0.148828   0.127815
   36  H  5  S    0.003046   0.000347   0.013388  -0.067281   0.104785
   37  H  6  S    0.000212   0.000029   0.110813  -0.112351   0.020411
   38  H  6  S    0.002859   0.000789   0.020315  -0.050094   0.024318

                      6          7          8          9         10
                   -0.4667    -0.4340    -0.1843    -0.0931     0.1564
                     A          A          A          A          A   
    1  C  1  S    0.022607  -0.002238  -0.093295   0.000146   0.092358
    2  C  1  S   -0.042956   0.016006   0.213358   0.008829  -0.075350
    3  C  1  X   -0.154082  -0.279484   0.128686  -0.031379  -0.165200
    4  C  1  Y   -0.234142   0.167783  -0.383179   0.068451  -0.014450
    5  C  1  Z   -0.252411   0.191687   0.356967   0.089295   0.187613
    6  C  1  S   -0.079051  -0.033343   0.341660  -0.058110  -1.811444
    7  C  1  X   -0.051937  -0.110193   0.108614  -0.016444  -0.296026
    8  C  1  Y   -0.105031   0.070381  -0.290063   0.061569  -0.224271
    9  C  1  Z   -0.102046   0.106512   0.277491   0.104019   0.726118
   10  C  1 XX   -0.003390   0.013974  -0.010763   0.004689   0.002777
   11  C  1 YY   -0.021019   0.004994  -0.001948   0.005039   0.011468
   12  C  1 ZZ    0.026647  -0.025283  -0.005396  -0.010450   0.009544
   13  C  1 XY   -0.016545  -0.012887  -0.004614   0.023083  -0.000311
   14  C  1 XZ    0.008384   0.012690   0.000395   0.022605  -0.007975
   15  C  1 YZ    0.004122  -0.007971  -0.002163  -0.002918   0.002708
   16  C  2  S   -0.001301  -0.028019   0.022029  -0.004000   0.062926
   17  C  2  S   -0.000533   0.061114  -0.049437   0.005852  -0.124531
   18  C  2  X    0.177430   0.291040  -0.059726   0.091985   0.055608
   19  C  2  Y    0.063960   0.199568   0.056937  -0.413213  -0.074909
   20  C  2  Z   -0.190376  -0.005765  -0.061178  -0.409686   0.094215
   21  C  2  S    0.008166   0.085637  -0.012186   0.055970  -0.620267
   22  C  2  X    0.081149   0.141007   0.002292   0.101152   0.539255
   23  C  2  Y    0.037556   0.108546   0.037490  -0.398456  -0.158937
   24  C  2  Z   -0.093758  -0.016893  -0.031067  -0.401637   0.234972
   25  C  2 XX   -0.003042  -0.004103  -0.006502  -0.003365  -0.010103
   26  C  2 YY   -0.003306  -0.006838   0.004670   0.000207   0.002834
   27  C  2 ZZ    0.001053  -0.000414   0.008091   0.000579   0.011085
   28  C  2 XY   -0.020076  -0.007490  -0.016988   0.002643  -0.000689
   29  C  2 XZ   -0.001193   0.020520   0.017523   0.007193   0.003147
   30  C  2 YZ    0.000896  -0.000219  -0.008076   0.000971   0.003220
   31  H  3  S   -0.156903  -0.190458  -0.076294  -0.008180  -0.015648
   32  H  3  S   -0.128690  -0.165446  -0.094139  -0.018693   0.383784
   33  H  4  S    0.073877   0.055868   0.102827   0.010894   0.008634
   34  H  4  S    0.057865   0.045495   0.153108   0.006569   0.920576
   35  H  5  S   -0.218722  -0.002920  -0.082942   0.099969   0.003719
   36  H  5  S   -0.207685   0.005501  -0.086133   0.177629   0.936392
   37  H  6  S    0.164157  -0.201960  -0.054344  -0.129039   0.062829
   38  H  6  S    0.157552  -0.216983  -0.045072  -0.242393   1.389769

                     11         12         13         14         15
                    0.1956     0.2033     0.2473     0.3619     0.5559
                     A          A          A          A          A   
    1  C  1  S    0.076949  -0.022336  -0.048155   0.076642   0.012746
    2  C  1  S   -0.067778   0.020907   0.045864  -0.017316   0.154509
    3  C  1  X   -0.008923   0.063034  -0.001123   0.213913  -0.613026
    4  C  1  Y   -0.082049   0.294841   0.091628   0.098918   0.090516
    5  C  1  Z    0.079173   0.243108  -0.004829  -0.036838   0.085156
    6  C  1  S   -1.284230   0.462189   1.126834  -2.607801   0.476702
    7  C  1  X    0.130475   0.142364  -0.042599   2.342789   0.656444
    8  C  1  Y   -0.280718   0.878814   0.735736  -0.013870   0.028647
    9  C  1  Z    0.348268   0.706558  -0.450707   0.333686  -0.089952
   10  C  1 XX    0.012994  -0.010868   0.008485   0.020974   0.073933
   11  C  1 YY    0.005151  -0.003353  -0.006141  -0.005652  -0.019485
   12  C  1 ZZ    0.001838   0.007686  -0.004151  -0.010747  -0.029086
   13  C  1 XY    0.000505  -0.010973   0.017579  -0.003995  -0.022868
   14  C  1 XZ   -0.001312  -0.001140  -0.015389  -0.001969   0.017966
   15  C  1 YZ    0.010515   0.002076   0.004467  -0.010561  -0.003420
   16  C  2  S   -0.122692  -0.005297   0.015952  -0.072497   0.027579
   17  C  2  S    0.131549  -0.012300   0.018825   0.074621   0.229197
   18  C  2  X   -0.169472  -0.054533  -0.108559   0.216808   0.503625
   19  C  2  Y   -0.029338   0.056073  -0.268853  -0.060446   0.021447
   20  C  2  Z    0.010306  -0.096125   0.254825   0.100797   0.099665
   21  C  2  S    2.192396   0.233369  -0.480858   2.231774  -0.146494
   22  C  2  X   -0.384817  -0.181757  -0.787682   2.323302  -1.336735
   23  C  2  Y   -0.101461  -0.021842  -1.079689  -0.551870   0.055754
   24  C  2  Z    0.039781  -0.407860   0.889753   0.767980  -0.202601
   25  C  2 XX   -0.013384  -0.000401   0.005247  -0.002499   0.083819
   26  C  2 YY   -0.005001  -0.016145  -0.001241   0.005411  -0.017288
   27  C  2 ZZ   -0.004220   0.013548   0.003757   0.005721  -0.007304
   28  C  2 XY   -0.003839   0.016202  -0.003426   0.016704  -0.013510
   29  C  2 XZ    0.001563   0.003559   0.008185  -0.014040   0.037521
   30  C  2 YZ    0.000294   0.008280   0.000973  -0.012511   0.015476
   31  H  3  S   -0.062986   0.014593  -0.015769   0.065575  -0.077223
   32  H  3  S   -1.506837   0.074177  -1.659417   0.239714  -0.200532
   33  H  4  S   -0.037811  -0.036493   0.037401   0.005781  -0.067947
   34  H  4  S   -1.027666  -0.596225   1.523090   0.917261  -0.244201
   35  H  5  S    0.018754  -0.084471   0.033862  -0.060417  -0.094117
   36  H  5  S    0.753223  -1.488860  -0.833388  -0.630024  -0.033978
   37  H  6  S    0.011937   0.099171   0.028021  -0.102747  -0.169448
   38  H  6  S    0.621115   1.107282  -0.136739   0.020106   0.348101

                     16         17         18         19
                    0.6266     0.6459     0.6807     0.7361
                     A          A          A          A   
    1  C  1  S    0.002882   0.025556   0.001340   0.024510
    2  C  1  S   -0.027266  -0.297585  -0.091927  -0.213324
    3  C  1  X   -0.121801  -0.110748   0.091602   0.600316
    4  C  1  Y   -0.383440   0.611519   0.231304  -0.165682
    5  C  1  Z   -0.513045  -0.694055   0.225892  -0.146438
    6  C  1  S   -0.034681   0.097989   0.256289   0.650569
    7  C  1  X    0.414461  -0.039153  -0.227328  -0.758866
    8  C  1  Y    0.724114  -0.676056  -0.461391   0.192378
    9  C  1  Z    0.932597   0.799807  -0.573030   0.197761
   10  C  1 XX   -0.028641  -0.058654   0.012151   0.088572
   11  C  1 YY   -0.072456  -0.013988   0.012167  -0.011245
   12  C  1 ZZ    0.085853  -0.013659  -0.035560  -0.047701
   13  C  1 XY   -0.024410   0.016190   0.042866  -0.015523
   14  C  1 XZ    0.022391  -0.009561   0.028209   0.044000
   15  C  1 YZ    0.020675   0.009390  -0.006713   0.003503
   16  C  2  S    0.009311   0.007525  -0.007632  -0.076892
   17  C  2  S   -0.080069  -0.124396  -0.032490  -0.295391
   18  C  2  X    0.041389  -0.013377   0.147187   0.513233
   19  C  2  Y   -0.433541   0.181253  -0.602874   0.037504
   20  C  2  Z   -0.222010  -0.109611  -0.709637   0.217316
   21  C  2  S    0.416832   0.292170  -0.156056   0.665418
   22  C  2  X    0.012250  -0.212178  -0.378214  -1.211270
   23  C  2  Y    0.324237  -0.327516   0.771439   0.004975
   24  C  2  Z   -0.063420   0.218635   1.006413  -0.462212
   25  C  2 XX    0.040747   0.017712  -0.035374  -0.139227
   26  C  2 YY   -0.029528  -0.020174   0.009049  -0.011532
   27  C  2 ZZ   -0.013517  -0.008986  -0.002223  -0.024481
   28  C  2 XY   -0.000876  -0.020555  -0.020754  -0.002408
   29  C  2 XZ   -0.039550   0.009875  -0.007655  -0.046106
   30  C  2 YZ    0.017639   0.010198   0.008786   0.121079
   31  H  3  S    0.115601  -0.235389  -0.126898  -0.442462
   32  H  3  S   -0.065516  -0.272685  -0.053836  -0.342044
   33  H  4  S   -0.139621   0.165401  -0.008858  -0.535815
   34  H  4  S   -0.019041   0.067432   0.025839  -0.242674
   35  H  5  S   -0.397421   0.133105   0.152506   0.042284
   36  H  5  S   -0.127793   0.148485  -0.120423  -0.001025
   37  H  6  S    0.320944   0.089774  -0.221983  -0.181550
   38  H  6  S    0.079893   0.158171   0.301173   0.275101

     ------------------------------------------
     PROPERTIES FOR THE BHHLYP   DFT FUNCTIONAL
      USING THE RELAXED DENSITY OF EXCITED STATE    3
     ------------------------------------------

          -----------------
          ENERGY COMPONENTS
          -----------------

         WAVEFUNCTION NORMALIZATION =       1.0000000000

                ONE ELECTRON ENERGY =    -168.9699700449
                TWO ELECTRON ENERGY =      57.7448806563
           NUCLEAR REPULSION ENERGY =      32.8802437102
                                      ------------------
                       TOTAL ENERGY =     -78.3448456784

 ELECTRON-ELECTRON POTENTIAL ENERGY =      57.7448806563
  NUCLEUS-ELECTRON POTENTIAL ENERGY =    -246.8123864676
   NUCLEUS-NUCLEUS POTENTIAL ENERGY =      32.8802437102
                                      ------------------
             TOTAL POTENTIAL ENERGY =    -156.1872621011
               TOTAL KINETIC ENERGY =      77.8424164226
                 VIRIAL RATIO (V/T) =       2.0064544406

          ---------------------------------------
          MULLIKEN AND LOWDIN POPULATION ANALYSES
          ---------------------------------------

     ATOMIC MULLIKEN POPULATION IN EACH MOLECULAR ORBITAL

                      1          2          3          4          5

                  2.000000   2.000000   2.000000   2.000000   2.000000

    1             1.997194   0.000962   0.939782   0.502558   0.438342
    2             0.001635   1.998166   0.791920   0.779257   0.875827
    3             0.000019   0.000423   0.047121   0.245152   0.045089
    4            -0.000008   0.000387   0.045028   0.190802   0.491530
    5             0.000611   0.000012   0.070484   0.181230   0.141030
    6             0.000549   0.000050   0.105665   0.101001   0.008181

                      6          7          8          9

                  2.000000   2.000000   1.000000   1.000000

    1             0.756268   0.713294   0.911044   0.024235
    2             0.402893   0.626037   0.017606   0.897806
    3             0.195094   0.280939   0.015642   0.000477
    4             0.039682   0.020034   0.034446   0.000179
    5             0.390491  -0.000131   0.015665   0.027880
    6             0.215574   0.359828   0.005597   0.049423

     ATOMIC SPIN POPULATION (ALPHA MINUS BETA)
       ATOM         MULL.POP.                    LOW.POP.
    1 C            -0.304833                    -0.293444
    2 C             0.367752                     0.343627
    3 H            -0.006060                    -0.006040
    4 H            -0.018824                    -0.017548
    5 H            -0.036432                    -0.033307
    6 H            -0.001604                     0.006711

               ----- POPULATIONS IN EACH AO -----
                             MULLIKEN      LOWDIN
              1  C  1  S      1.99409     1.98093
              2  C  1  S      0.69196     0.38525
              3  C  1  X      0.67257     0.60646
              4  C  1  Y      0.59010     0.54152
              5  C  1  Z      0.70818     0.65491
              6  C  1  S      0.73961     0.40395
              7  C  1  X      0.18573     0.37688
              8  C  1  Y      0.40678     0.50770
              9  C  1  Z      0.47617     0.58998
             10  C  1 XX      0.00637     0.18422
             11  C  1 YY      0.00279     0.16017
             12  C  1 ZZ      0.00306     0.15223
             13  C  1 XY      0.00947     0.01607
             14  C  1 XZ      0.00501     0.00990
             15  C  1 YZ      0.00118     0.00204
             16  C  2  S      1.99397     1.98121
             17  C  2  S      0.73310     0.39080
             18  C  2  X      0.78268     0.69426
             19  C  2  Y      0.53370     0.47817
             20  C  2  Z      0.58067     0.52248
             21  C  2  S      0.63871     0.34622
             22  C  2  X      0.26789     0.38655
             23  C  2  Y      0.36613     0.41289
             24  C  2  Z      0.29799     0.38885
             25  C  2 XX      0.01255     0.18795
             26  C  2 YY     -0.00807     0.14116
             27  C  2 ZZ     -0.00656     0.14381
             28  C  2 XY      0.01358     0.02389
             29  C  2 XZ      0.01591     0.02950
             30  C  2 YZ      0.00561     0.00855
             31  H  3  S      0.52882     0.48695
             32  H  3  S      0.27814     0.34368
             33  H  4  S      0.52660     0.48804
             34  H  4  S      0.29885     0.36167
             35  H  5  S      0.48476     0.44245
             36  H  5  S      0.31553     0.35077
             37  H  6  S      0.49916     0.46577
             38  H  6  S      0.34726     0.35218

          ----- MULLIKEN ATOMIC OVERLAP POPULATIONS -----
          (OFF-DIAGONAL ELEMENTS NEED TO BE MULTIPLIED BY 2)

             1           2           3           4           5

    1    5.4360075
    2    0.4835602   5.1689593
    3   -0.0395278   0.3479290   0.5532842
    4   -0.0639364   0.3506934  -0.0681147   0.6259014
    5    0.3783642  -0.0580342   0.0026777   0.0012361   0.5122992
    6    0.2985963  -0.0652739   0.0107045  -0.0203332  -0.0362549

             6

    6    0.6589754

          TOTAL MULLIKEN AND LOWDIN ATOMIC POPULATIONS
       ATOM         MULL.POP.    CHARGE          LOW.POP.     CHARGE
    1 C             6.493064   -0.493064         6.572208   -0.572208
    2 C             6.227834   -0.227834         6.136276   -0.136276
    3 H             0.806953    0.193047         0.830626    0.169374
    4 H             0.825447    0.174553         0.849711    0.150289
    5 H             0.800288    0.199712         0.793229    0.206771
    6 H             0.846414    0.153586         0.817950    0.182050

          -------------------------------
          BOND ORDER AND VALENCE ANALYSIS     BOND ORDER THRESHOLD=0.050
          -------------------------------

                   BOND                       BOND                       BOND
  ATOM PAIR DIST  ORDER      ATOM PAIR DIST  ORDER      ATOM PAIR DIST  ORDER
    1   2  1.384  1.571        1   5  1.099  0.884        1   6  1.142  0.840
    2   3  1.089  0.916        2   4  1.098  0.904        2   6  1.788  0.086

                       TOTAL       BONDED        FREE
      ATOM            VALENCE     VALENCE     VALENCE
    1 C                 3.419       3.298       0.121
    2 C                 3.684       3.522       0.162
    3 H                 0.911       0.911      -0.000
    4 H                 0.905       0.902       0.003
    5 H                 0.927       0.921       0.006
    6 H                 0.914       0.919      -0.005

          -----------------------------------------
          ATOMIC SPIN DENSITY AT THE NUCLEUS (A.U.)
          -----------------------------------------
                            SPIN DENS    ALPHA DENS     BETA DENS
    1  C            6.0    -0.1180731      58.97652      59.09459
    2  C            6.0    -0.0182312      59.03393      59.05216
    3  H            1.0    -0.0034384       0.21036       0.21380
    4  H            1.0    -0.0062984       0.20730       0.21360
    5  H            1.0    -0.0213579       0.18107       0.20243
    6  H            1.0     0.0074870       0.20159       0.19410

          ---------------------
          ELECTROSTATIC MOMENTS
          ---------------------

 POINT   1           X           Y           Z (BOHR)    CHARGE
                -1.289534    0.246355   -0.371263       -0.00 (A.U.)
         DX          DY          DZ         /D/  (DEBYE)
    -1.683922    1.147796   -1.681140    2.641829
 ...... END OF PROPERTY EVALUATION ......
 STEP CPU TIME =     0.01 TOTAL CPU TIME =        403.2 (      6.7 MIN)
 TOTAL WALL CLOCK TIME=        414.2 SECONDS, CPU UTILIZATION IS    97.33%
  $VIB   
          IVIB=   0 IATOM=   0 ICOORD=   0 E=      -78.3448456784
 -2.913688179E-05-1.971047013E-05-2.034093634E-05 2.211608116E-05 4.909397544E-05
  2.179039993E-05 2.154556653E-05 5.746085779E-06 9.673702816E-06-1.855303321E-05
 -1.469196074E-05-2.371999973E-05-6.150795443E-06 1.126156718E-05 2.977879060E-05
  1.017906275E-05-3.169919752E-05-1.718195727E-05
 -1.683921671E+00 1.147796089E+00-1.681139854E+00
 ......END OF GEOMETRY SEARCH......
 STEP CPU TIME =     0.00 TOTAL CPU TIME =        403.2 (      6.7 MIN)
 TOTAL WALL CLOCK TIME=        414.2 SECONDS, CPU UTILIZATION IS    97.33%
              2870731  WORDS OF DYNAMIC MEMORY USED
 EXECUTION OF GAMESS TERMINATED NORMALLY 21:56:55 10-MAR-2022    
 DDI: 263640 bytes (0.3 MB / 0 MWords) used by master data server.

 ----------------------------------------
 CPU timing information for all processes
 ========================================
 0: 402.242 + 0.927 = 403.170
 ----------------------------------------
Note: The following floating-point exceptions are signalling: IEEE_UNDERFLOW_FLAG IEEE_DENORMAL
 ddikick.x: exited gracefully.
