
 Distributed Data Interface kickoff program.
 Initiating 1 compute processes on 1 nodes to run the following command:
 /usr/local/gamess/gamess.00.x /home/webmo/webmo/yamnor/73/input 

          *******************************************************
          *                                                     *
          *      GAMESS VERSION = 30 SEP 2021 (R2 Patch 1)      *
          *                                                     *
          *              doi.org/10.1063/5.0005188              *
          *                                                     *
          **************** 64 BIT LINUX VERSION *****************

  GAMESS HAS BEEN MADE POSSIBLE WITH IMPORTANT CONTRIBUTIONS FROM
  THE FOLLOWING INDIVIDUALS (IN ALPHABETICAL ORDER):

     IVANA ADAMOVIC, CHRISTINE AIKENS, TOMOKO AKAMA,
     YURI ALEXEEV, YURIKO AOKI, POOJA ARORA, TOSHIO ASADA,
     ANDREY ASADCHEV, KIM K. BALDRIDGE, PRADIPTA BANDYOPADHYAY,
     TAYLOR A. BARNES, MARIA BARYSZ, ROB BELL,
     JONATHAN BENTZ, COLLEEN BERTONI,
     JERRY A. BOATZ, BRETT BODE, KURT BRORSEN, KURT R. BRORSEN,
     LAIMUTIS BYTAUTAS, CALEB CARLIN, LAURA CARRINGTON,
     GALINA CHABAN, BENOIT CHAMPAGNE, WEI CHEN, MAHITO CHIBA,
     DAN CHIPMAN, CHEOL HO CHOI, TANNER CULPITT,
     DIPAYAN DATTA, PAUL DAY, ALBERT DEFUSCO,
     NUWAN DESILVA, J. EMILIANO DEUSTUA,
     TIM DUDLEY, MICHEL DUPUIS, STEVEN T. ELBERT,
     DMITRI FEDOROV, ALEX FINDLATER, GRAHAM FLETCHER,
     MARK FREITAG, CHRISTIAN FRIEDL, DAVID GARMER,
     IGOR S. GERASIMOV, KURT GLAESEMANN, MARK S. GORDON,
     JEFFREY GOUR, FENG LONG GU, EMILIE B. GUIDEZ,
     ANASTASIA GUNINA, SHARON HAMMES-SCHIFFER, MASATAKE HARUTA,
     KIMIHIKO HIRAO, YASUHIRO IKABATA, TZVETELIN IORDANOV,
     STEPHAN IRLE, KAZUYA ISHIMURA, JOE IVANIC, FRANK JENSEN,
     JAN H. JENSEN, VISVALDAS KAIRYS, MUNEAKI KAMIYA,
     MICHIO KATOUDA, NAOAKI KAWAKAMI, DAN KEMP, BERNARD KIRTMAN,
     KAZUO KITAURA, MARIUSZ KLOBUKOWSKI, MASATO KOBAYASHI,
     PRAKASHAN KORAMBATH, JACEK KORCHOWIEC, SHIRO KOSEKI,
     KAROL KOWALSKI, JIMMY KROMANN, STANISLAW KUCHARSKI,
     HENRY KURTZ, SAROM SOK LEANG, HUI LI, SHUHUA LI, WEI LI,
     JESSE LUTZ, ALEKSANDR O. LYKHIN, MARCIN MAKOWSKI,
     JOANI MATO, NIKITA MATSUNAGA, BENEDETTA MENNUCCI,
     GRANT MERRILL, NORIYUKI MINEZAWA, VLADIMIR MIRONOV,
     EISAKU MIYOSHI, JOHN A. MONTGOMERY JR., HIROTOSHI MORI,
     JONATHAN MULLIN, MONIKA MUSIAL, SHIGERU NAGASE,
     TAKESHI NAGATA, HIROMI NAKAI, TAKAHITO NAKAJIMA,
     YUYA NAKAJIMA, HARUYUKI NAKANO, HIROYA NAKATA, SEAN NEDD,
     HEATHER NETZLOFF, KIET A. NGUYEN, YOSHIO NISHIMOTO,
     BOSILJKA NJEGIC, RYAN OLSON, MIKE PAK, ROBERTO PEVERATI,
     BUU PHAM, PIOTR PIECUCH, ANNA POMOGAEVA, DAVID POOLE,
     SPENCER PRUITT, OLIVIER QUINET, LUKE ROSKOP,
     KLAUS RUEDENBERG, ANDREW SAND, TOSAPORN SATTASATHUCHANA,
     NOZOMI SAWADA, MICHAEL W. SCHMIDT, PATRICK E. SCHNEIDER,
     JUNJI SEINO, PRACHI SHARMA, JUN SHEN, JIM SHOEMAKER,
     YINAN SHU, DEJUN SI, JONATHAN SKONE, LYUDMILA SLIPCHENKO,
     TONY SMITH, JIE SONG, MARK SPACKMAN, CASPER STEINMANN,
     WALT STEVENS, PEIFENG SU, SHUJUN SU, CHET SWALINA,
     TETSUYA TAKETSUGU, ZHEN TAO, NANDUN THELLAMUREGE
     SEIKEN TOKURA, JACOPO TOMASI, TSUGUKI TOUMA, TAKAO TSUNEDA,
     HIROAKI UMEDA, JORGE LUIS GALVEZ VALLEJO, YALI WANG,
     SIMON WEBB, AARON WEST, THERESA L. WINDUS, MARTA WLOCH,
     PENG XU, KIYOSHI YAGI, SUSUMU YANAGISAWA, YANG YANG,
     SOOHAENG YOO, TAKESHI YOSHIKAWA, FEDERICO ZAHARIEV,
     TOBY ZENG

  WHO ARE SUPPORTED BY THEIR INSTITUTION/UNIVERSITY/COMPANY/GROUP
  (IN ALPHABETICAL ORDER):

     EP ANALYTICS, FACULTES UNIVERSITAIRES NOTRE-DAME DE LA PAIX,
     INSTITUTE FOR MOLECULAR SCIENCE, IOWA STATE UNIVERSITY,
     JACKSON STATE UNIVERSITY, JOHANNES KEPLER UNIVERSITY LINZ,
     KYUSHU UNIVERSITY, MICHIGAN STATE UNIVERSITY,
     MIE UNIVERSITY, THE MOLECULAR SCIENCES SOFTWARE INSTITUTE,
     MOSCOW STATE UNIVERSITY,
     N. COPERNICUS UNIVERSITY, NAGOYA UNIVERSITY,
     NANJING UNIVERSITY, NAT. INST. OF ADVANCED INDUSTRIAL
     SCIENCE AND TECHNOLOGY, NATIONAL INST. OF STANDARDS AND
     TECHNOLOGY, NESMEYANOV INSTITUTE OF ORGANOELEMENT COMPOUNDS
     OF RUSSIAN ACADEMY OF SCIENCES, OSAKA PREFECTURE UNIVERSITY,
     PENNSYLVANIA STATE UNIVERSITY, TOKYO INSTITUTE OF TECHNOLOGY,
     UNIVERSITY OF AARHUS, UNIVERSITY OF ALBERTA,
     UNIVERSITY OF CALIFORNIA AT SANTA BARBARA,
     UNIVERSITY OF COPENHAGEN, UNIVERSITY OF IOWA,
     UNIVERSITY OF MEMPHIS, UNIVERSITY OF MINNESOTA,
     UNIVERSITY OF NEBRASKA, UNIVERSITY OF NEW ENGLAND,
     UNIVERSITY OF NOTRE DAME, UNIVERSITY OF PISA,
     UNIVERSITY OF SILESIA, UNIVERSITY OF TOKYO,
     UNIVERSITY OF ZURICH, WASEDA UNIVERSITY, YALE UNIVERSITY

  GAMESS SOFTWARE MANAGEMENT TEAM FOR THIS RELEASE:
     MARK S. GORDON (TEAM LEAD),
     BRETT BODE (SENIOR ADVISOR),
     GIUSEPPE BARCA,
     COLLEEN BERTONI,
     KRISTOPHER KEIPERT (ADVISOR),
     SAROM S. LEANG (DEVELOPMENT LEAD),
     BUU PHAM,
     JORGE LUIS GALVEZ VALLEJO (WEBSITE ADMINISTRATOR),
     PENG XU

 EXECUTION OF GAMESS BEGUN 20:30:31 10-MAR-2022    

            ECHO OF THE FIRST FEW INPUT CARDS -
 INPUT CARD> $CONTRL                                                                        
 INPUT CARD>   RUNTYP=ENERGY                                                                
 INPUT CARD>   SCFTYP=ROHF                                                                  
 INPUT CARD>   DFTTYP=BHHLYP                                                                
 INPUT CARD>   TDDFT=SPNFLP                                                                 
 INPUT CARD>   ICHARG=0                                                                     
 INPUT CARD>   MULT=3                                                                       
 INPUT CARD>   COORD=UNIQUE                                                                 
 INPUT CARD> $END                                                                           
 INPUT CARD> $SYSTEM                                                                        
 INPUT CARD>   MWORDS=128                                                                   
 INPUT CARD> $END                                                                           
 INPUT CARD> $BASIS                                                                         
 INPUT CARD>   GBASIS=N31                                                                   
 INPUT CARD>   NGAUSS=6                                                                     
 INPUT CARD>   NDFUNC=1                                                                     
 INPUT CARD> $END                                                                           
 INPUT CARD> $TDDFT                                                                         
 INPUT CARD>   NSTATE=3                                                                     
 INPUT CARD>   TAMMD=.T.                                                                    
 INPUT CARD> $END                                                                           
 INPUT CARD> $DATA                                                                          
 INPUT CARD>C2H4                                                                            
 INPUT CARD>C1 1                                                                            
 INPUT CARD>C 6  0.00000000  0.00000000  0.00000000                                         
 INPUT CARD>C 6 -1.33260422  0.21233730 -0.19855806                                         
 INPUT CARD>H 1 -2.13708745 -0.34499138  0.40478704                                         
 INPUT CARD>H 1 -2.05422414  0.80932845 -0.91868615                                         
 INPUT CARD>H 1  0.64484365  0.79142441  0.27198609                                         
 INPUT CARD>H 1  0.51926790 -0.26991669 -0.91636224                                         
 INPUT CARD> $END                                                                           
 INPUT CARD>                                                                                
  128000000 WORDS OF MEMORY AVAILABLE

     BASIS OPTIONS
     -------------
     GBASIS=N31          IGAUSS=       6      POLAR=POPN31  
     NDFUNC=       1     NFFUNC=       0     DIFFSP=       F
     NPFUNC=       0      DIFFS=       F     BASNAM=        


     RUN TITLE
     ---------
 C2H4                                                                            

 THE POINT GROUP OF THE MOLECULE IS C1      
 THE ORDER OF THE PRINCIPAL AXIS IS     1

 ATOM      ATOMIC                      COORDINATES (BOHR)
           CHARGE         X                   Y                   Z
 C           6.0     0.0000000000        0.0000000000        0.0000000000
 C           6.0    -2.5182568259        0.4012593140       -0.3752203261
 H           1.0    -4.0385096923       -0.6519391763        0.7649365890
 H           1.0    -3.8819207420        1.5294090046       -1.7360650922
 H           1.0     1.2185778034        1.4955752749        0.5139791826
 H           1.0     0.9812740452       -0.5100685836       -1.7316735391

          INTERNUCLEAR DISTANCES (ANGS.)
          ------------------------------

                1 C          2 C          3 H          4 H          5 H     

   1 C       0.0000000    1.3639452 *  2.2022748 *  2.3914083 *  1.0564811 *
   2 C       1.3639452 *  0.0000000    1.1497103 *  1.1814052 *  2.1135406 *
   3 H       2.2022748 *  1.1497103 *  0.0000000    1.7580961 *  3.0080255  
   4 H       2.3914083 *  1.1814052 *  1.7580961 *  0.0000000    2.9500827 *
   5 H       1.0564811 *  2.1135406 *  3.0080255    2.9500827 *  0.0000000  
   6 H       1.0872966 *  2.0438303 *  2.9677088 *  2.7906338 *  1.5982446 *

                6 H     

   1 C       1.0872966 *
   2 C       2.0438303 *
   3 H       2.9677088 *
   4 H       2.7906338 *
   5 H       1.5982446 *
   6 H       0.0000000  

  * ... LESS THAN  3.000


     ATOMIC BASIS SET
     ----------------
 THE CONTRACTED PRIMITIVE FUNCTIONS HAVE BEEN UNNORMALIZED
 THE CONTRACTED BASIS FUNCTIONS ARE NOW NORMALIZED TO UNITY

  SHELL TYPE  PRIMITIVE        EXPONENT          CONTRACTION COEFFICIENT(S)

 C         

      1   S       1          3047.5248800    0.001834737132
      1   S       2           457.3695180    0.014037322813
      1   S       3           103.9486850    0.068842622264
      1   S       4            29.2101553    0.232184443216
      1   S       5             9.2866630    0.467941348435
      1   S       6             3.1639270    0.362311985337

      2   L       7             7.8682723   -0.119332419775    0.068999066591
      2   L       8             1.8812885   -0.160854151696    0.316423960957
      2   L       9             0.5442493    1.143456437840    0.744308290898

      3   L      10             0.1687145    1.000000000000    1.000000000000

      4   D      11             0.8000000    1.000000000000

 C         

      5   S      12          3047.5248800    0.001834737132
      5   S      13           457.3695180    0.014037322813
      5   S      14           103.9486850    0.068842622264
      5   S      15            29.2101553    0.232184443216
      5   S      16             9.2866630    0.467941348435
      5   S      17             3.1639270    0.362311985337

      6   L      18             7.8682723   -0.119332419775    0.068999066591
      6   L      19             1.8812885   -0.160854151696    0.316423960957
      6   L      20             0.5442493    1.143456437840    0.744308290898

      7   L      21             0.1687145    1.000000000000    1.000000000000

      8   D      22             0.8000000    1.000000000000

 H         

      9   S      23            18.7311370    0.033494604338
      9   S      24             2.8253944    0.234726953484
      9   S      25             0.6401217    0.813757326146

     10   S      26             0.1612778    1.000000000000

 H         

     11   S      27            18.7311370    0.033494604338
     11   S      28             2.8253944    0.234726953484
     11   S      29             0.6401217    0.813757326146

     12   S      30             0.1612778    1.000000000000

 H         

     13   S      31            18.7311370    0.033494604338
     13   S      32             2.8253944    0.234726953484
     13   S      33             0.6401217    0.813757326146

     14   S      34             0.1612778    1.000000000000

 H         

     15   S      35            18.7311370    0.033494604338
     15   S      36             2.8253944    0.234726953484
     15   S      37             0.6401217    0.813757326146

     16   S      38             0.1612778    1.000000000000

 TOTAL NUMBER OF BASIS SET SHELLS             =   16
 NUMBER OF CARTESIAN GAUSSIAN BASIS FUNCTIONS =   38
 NUMBER OF ELECTRONS                          =   16
 CHARGE OF MOLECULE                           =    0
 SPIN MULTIPLICITY                            =    3
 NUMBER OF OCCUPIED ORBITALS (ALPHA)          =    9
 NUMBER OF OCCUPIED ORBITALS (BETA )          =    7
 TOTAL NUMBER OF ATOMS                        =    6
 THE NUCLEAR REPULSION ENERGY IS       32.5222144687

 SELECTED MURRAY-HANDY-LAMING RADIAL GRID

 LEGACY BECKE'S FUZZY CELL METHOD

 SELECTED ORIGINAL BECKE'S PARTITION FUNCTION

     LEBEDEV GRID-BASED DFT OPTIONS
     ------------------------------
     DFTTYP=BHHLYP  
     NRAD  =      96     NLEB  =     302
     NRAD0 =      24     NLEB0 =     110
     SWOFF =    5.00E-03 (PURE SCF -> DFT)
     SWITCH=    3.00E-04 (COARSE -> TIGHT GRID)
     THRESH=    0.00E+00 GTHRE=    1.00E+00

 GRIMME'S EMPIRICAL DISPERSION CORRECTION= F

     $CONTRL OPTIONS
     ---------------
 SCFTYP=ROHF         RUNTYP=ENERGY       EXETYP=RUN     
 MPLEVL=       0     CITYP =NONE         CCTYP =NONE         VBTYP =NONE    
 DFTTYP=BHHLYP       TDDFT =SPNFLP  
 MULT  =       3     ICHARG=       0     NZVAR =       0     COORD =UNIQUE  
 PP    =NONE         RELWFN=NONE         LOCAL =NONE         NUMGRD=       F
 ISPHER=      -1     NOSYM =       0     MAXIT =      30     UNITS =ANGS    
 PLTORB=       F     MOLPLT=       F     AIMPAC=       F     FRIEND=        
 NPRINT=       7     IREST =       0     GEOM  =INPUT   
 NORMF =       0     NORMP =       0     ITOL  =      20     ICUT  =       9
 INTTYP=BEST         GRDTYP=BEST         QMTTOL= 1.0E-06

     $SYSTEM OPTIONS
     ---------------
  REPLICATED MEMORY=   128000000 WORDS (ON EVERY NODE).
 DISTRIBUTED MEMDDI=           0 MILLION WORDS IN AGGREGATE,
 MEMDDI DISTRIBUTED OVER   1 PROCESSORS IS           0 WORDS/PROCESSOR.
 TOTAL MEMORY REQUESTED ON EACH PROCESSOR=   128000000 WORDS.
 TIMLIM=      525600.00 MINUTES, OR     365.0 DAYS.
 PARALL= F  BALTYP=  DLB     KDIAG=    0  COREFL= F
 MXSEQ2=     300 MXSEQ3=     150  mem10=         0  mem22=         0

          ----------------
          PROPERTIES INPUT
          ----------------

     MOMENTS            FIELD           POTENTIAL          DENSITY
 IEMOM =       1   IEFLD =       0   IEPOT =       0   IEDEN =       0
 WHERE =COMASS     WHERE =NUCLEI     WHERE =NUCLEI     WHERE =NUCLEI  
 OUTPUT=BOTH       OUTPUT=BOTH       OUTPUT=BOTH       OUTPUT=BOTH    
 IEMINT=       0   IEFINT=       0                     IEDINT=       0
                                                       MORB  =       0
          EXTRAPOLATION IN EFFECT
          DIIS IN EFFECT
 ORBITAL PRINTING OPTION: NPREO=     1    38     2     1

     -------------------------------
     INTEGRAL TRANSFORMATION OPTIONS
     -------------------------------
     NWORD  =            0
     CUTOFF = 1.0E-09     MPTRAN =       0
     DIRTRF =       F     AOINTS =DUP     

          ----------------------
          INTEGRAL INPUT OPTIONS
          ----------------------
 NOPK  =       1 NORDER=       0 SCHWRZ=       T

          ----------------------
          TDDFT INPUT PARAMETERS
          ----------------------
 NSTATE=       3 IROOT =       1 MULT  =       3
 MAXVEC=      50 NTRIAL=       5 CNVTOL=  1.00E-07
 TDPRP =       F TRNSD =       F TAMMD =       T
 TPA   =       F ALPHA =       F BETA  =       F
 PFREQ =    0.00    0.00
   NRAD=      48   NLEB=     110

     ------------------------------------------
     THE POINT GROUP IS C1 , NAXIS= 1, ORDER= 1
     ------------------------------------------

     DIMENSIONS OF THE SYMMETRY SUBSPACES ARE
 A   =   38

 ..... DONE SETTING UP THE RUN .....
 STEP CPU TIME =     0.01 TOTAL CPU TIME =          0.0 (      0.0 MIN)
 TOTAL WALL CLOCK TIME=          0.0 SECONDS, CPU UTILIZATION IS    76.35%

          ********************
          1 ELECTRON INTEGRALS
          ********************
 ...... END OF ONE-ELECTRON INTEGRALS ......
 STEP CPU TIME =     0.00 TOTAL CPU TIME =          0.0 (      0.0 MIN)
 TOTAL WALL CLOCK TIME=          0.0 SECONDS, CPU UTILIZATION IS    77.72%

          -------------
          GUESS OPTIONS
          -------------
          GUESS =HUCKEL            NORB  =       0          NORDER=       0
          MIX   =       F          PRTMO =       F          PUNMO =       F
          TOLZ  = 1.0E-08          TOLE  = 1.0E-05
          SYMDEN=       F          PURIFY=       F

 INITIAL GUESS ORBITALS GENERATED BY HUCKEL   ROUTINE.
 HUCKEL GUESS REQUIRES     15726 WORDS.

 SYMMETRIES FOR INITIAL GUESS ORBITALS FOLLOW.  ALPHA SET(S).
     9 ORBITALS ARE OCCUPIED (    2 CORE ORBITALS).
     3=A        4=A        5=A        6=A        7=A        8=A        9=A   
    10=A       11=A       12=A       13=A       14=A       15=A       16=A   
    17=A       18=A       19=A   

 SYMMETRIES FOR INITIAL GUESS ORBITALS FOLLOW.   BETA SET(S).
     7 ORBITALS ARE OCCUPIED (    2 CORE ORBITALS).
     3=A        4=A        5=A        6=A        7=A        8=A        9=A   
    10=A       11=A       12=A       13=A       14=A       15=A       16=A   
    17=A   
 ...... END OF INITIAL ORBITAL SELECTION ......
 STEP CPU TIME =     0.00 TOTAL CPU TIME =          0.0 (      0.0 MIN)
 TOTAL WALL CLOCK TIME=          0.0 SECONDS, CPU UTILIZATION IS    78.06%

                    ----------------------
                    AO INTEGRAL TECHNOLOGY
                    ----------------------
     S,P,L SHELL ROTATED AXIS INTEGRALS, REPROGRAMMED BY
        KAZUYA ISHIMURA (IMS) AND JOSE SIERRA (SYNSTAR).
     S,P,D,L SHELL ROTATED AXIS INTEGRALS PROGRAMMED BY
        KAZUYA ISHIMURA (INSTITUTE FOR MOLECULAR SCIENCE).
     S,P,D,F,G SHELL TO TOTAL QUARTET ANGULAR MOMENTUM SUM 5,
        ERIC PROGRAM BY GRAHAM FLETCHER (ELORET AND NASA ADVANCED
        SUPERCOMPUTING DIVISION, AMES RESEARCH CENTER).
     S,P,D,F,G,L SHELL GENERAL RYS QUADRATURE PROGRAMMED BY
        MICHEL DUPUIS (PACIFIC NORTHWEST NATIONAL LABORATORY).

          --------------------
          2 ELECTRON INTEGRALS
          --------------------

 THE -PK- OPTION IS OFF, THE INTEGRALS ARE NOT IN SUPERMATRIX FORM.
 STORING   15000 INTEGRALS/RECORD ON DISK, USING 12 BYTES/INTEGRAL.
 TWO ELECTRON INTEGRAL EVALUATION REQUIRES   90532 WORDS OF MEMORY.
 SCHWARZ INEQUALITY OVERHEAD:       741 INTEGRALS, T=        0.00
 II,JST,KST,LST =  1  1  1  1 NREC =         1 INTLOC =    1
 II,JST,KST,LST =  2  1  1  1 NREC =         1 INTLOC =    2
 II,JST,KST,LST =  3  1  1  1 NREC =         1 INTLOC =   34
 II,JST,KST,LST =  4  1  1  1 NREC =         1 INTLOC =  214
 II,JST,KST,LST =  5  1  1  1 NREC =         1 INTLOC = 1189
 II,JST,KST,LST =  6  1  1  1 NREC =         1 INTLOC = 3244
 II,JST,KST,LST =  7  1  1  1 NREC =         2 INTLOC =  996
 II,JST,KST,LST =  8  1  1  1 NREC =         3 INTLOC = 8256
 II,JST,KST,LST =  9  1  1  1 NREC =         7 INTLOC = 6201
 II,JST,KST,LST = 10  1  1  1 NREC =         8 INTLOC = 6110
 II,JST,KST,LST = 11  1  1  1 NREC =         9 INTLOC = 7510
 II,JST,KST,LST = 12  1  1  1 NREC =        10 INTLOC =10490
 II,JST,KST,LST = 13  1  1  1 NREC =        12 INTLOC =  159
 II,JST,KST,LST = 14  1  1  1 NREC =        13 INTLOC = 6600
 II,JST,KST,LST = 15  1  1  1 NREC =        14 INTLOC =14946
 II,JST,KST,LST = 16  1  1  1 NREC =        16 INTLOC =10279
 SCHWARZ INEQUALITY TEST SKIPPED          27 INTEGRAL BLOCKS.
 TOTAL NUMBER OF NONZERO TWO-ELECTRON INTEGRALS =              262733
         18 INTEGRAL RECORDS WERE STORED ON DISK FILE  8.
  ...... END OF TWO-ELECTRON INTEGRALS .....
 STEP CPU TIME =     0.06 TOTAL CPU TIME =          0.1 (      0.0 MIN)
 TOTAL WALL CLOCK TIME=          0.1 SECONDS, CPU UTILIZATION IS    86.63%

          ---------------------------
            RO-BHHLYP SCF CALCULATION
          ---------------------------

     NUCLEAR ENERGY =        32.5222144687
     MAXIT = 30     NPUNCH=  2     MULT=  3
     EXTRAP=T  DAMP=F  SHIFT=F  RSTRCT=F  DIIS=T  SOSCF=F
         DENSITY MATRIX CONVERGENCE THRESHOLD=  1.00E-06
     COARSE -> FINE DFT GRID SWITCH THRESHOLD=  3.00E-04 (SWITCH IN $DFT)
                   HF -> DFT SWITCH THRESHOLD=  5.00E-03 (SWOFF IN $DFT)
     ROHF CANONICALIZATION PARAMETERS
             C-C     O-O     V-V
     ALPHA -0.5000  0.5000  1.5000
     BETA   1.5000  0.5000 -0.5000
     MEMORY REQUIRED FOR UHF/ROHF ITERS=    270124 WORDS.

 DFT CODE IS SWITCHING FROM THE FINE GRID NRAD= 96,  NLEB=  302
                      TO THE COARSE GRID NRAD0= 24, NLEB0=  110

     EXCHANGE FUNCTIONAL   =B88&HFX   
     CORRELATION FUNCTIONAL=LYP88     
     DFT THRESHOLD         =.230E-07
     GRID CHANGE THRESHOLD =.300E-03
 FOR AN EULER-MACLAURIN QUADRATURE USING  96 RADIAL POINTS:
 SMALLEST GAUSSIAN PRIMITIVE EXPONENT=        0.1612777588 OF TYPE -S-
 ON ATOM NUMBER   3 HAS RADIAL NORMALIZATION=  1.000000
  LARGEST GAUSSIAN PRIMITIVE EXPONENT=     3047.5248800000 OF TYPE -S-
 ON ATOM NUMBER   1 HAS RADIAL NORMALIZATION=  1.000000
 DFT IS SWITCHED OFF, PERFORMING PURE SCF UNTIL SWOFF THRESHOLD IS REACHED.

 ITER EX      TOTAL ENERGY        E CHANGE  DENSITY CHANGE    DIIS ERROR
          * * *   INITIATING DIIS PROCEDURE   * * *
   1  0      -77.6974396685   -77.6974396685   0.133603738   0.317163436
   2  1      -77.9071202991    -0.2096806306   0.052880207   0.026670546
   3  2      -77.9124802637    -0.0053599646   0.010185850   0.011358079
   4  3      -77.9128389056    -0.0003586420   0.003948297   0.003534380
 CONVERGED TO SWOFF, SO DFT CALCULATION IS NOW SWITCHED ON.
          * * *   INITIATING DIIS PROCEDURE   * * *
   5  4      -78.3870746533    -0.4742357476   0.039832391   0.050653837
   6  5      -78.3906237977    -0.0035491444   0.020787018   0.015009809
   7  6      -78.3910158969    -0.0003920992   0.008804222   0.011401235
   8  7      -78.3915145495    -0.0004986526   0.000397730   0.000230990
   9  8      -78.3915147575    -0.0000002080   0.000150107   0.000146331
 DFT CODE IS SWITCHING BACK TO THE FINE GRID
          * * *   INITIATING DIIS PROCEDURE   * * *
  10  9      -78.3912290441     0.0002857134   0.000662196   0.000575167
  11 10      -78.3912296287    -0.0000005846   0.000139198   0.000087925
  12 11      -78.3912296403    -0.0000000116   0.000067771   0.000067829
  13 12      -78.3912296552    -0.0000000149   0.000008990   0.000008738
  14 13      -78.3912296556    -0.0000000004   0.000002417   0.000001492
  15 14      -78.3912296556    -0.0000000000   0.000001096   0.000000991
  16 15      -78.3912296556    -0.0000000000   0.000000183   0.000000098

          -----------------
          DENSITY CONVERGED
          -----------------
     TIME TO FORM FOCK OPERATORS=       6.2 SECONDS (       0.4 SEC/ITER)
     TIME TO SOLVE SCF EQUATIONS=       0.0 SECONDS (       0.0 SEC/ITER)

 THE CONVERGED ORBITALS WILL UNDERGO GUEST/SAUNDERS
 CANONICALIZATION FOR SPIN-FLIP TDDFT.

 FINAL RO-BHHLYP ENERGY IS      -78.3912296556 AFTER  16 ITERATIONS
 DFT EXCHANGE + CORRELATION ENERGY =        -6.3541807769
 TOTAL ELECTRON NUMBER             =        15.9999797679

          --------------------
          SPIN SZ   =    1.000
          S-SQUARED =    2.000
          --------------------

          ------------
          EIGENVECTORS
          ------------

                      1          2          3          4          5
                  -10.5971   -10.5953    -0.8641    -0.6713    -0.5075
                     A          A          A          A          A   
    1  C  1  S    0.256621   0.960240  -0.165424   0.099791   0.017472
    2  C  1  S    0.010380   0.039798   0.320524  -0.195737  -0.042989
    3  C  1  X    0.000440  -0.000420  -0.085880  -0.189909   0.376439
    4  C  1  Y    0.000079   0.000610   0.054858  -0.058392   0.067556
    5  C  1  Z   -0.000083  -0.000602  -0.055413   0.048847  -0.006500
    6  C  1  S   -0.001102  -0.014625   0.256611  -0.200158   0.000132
    7  C  1  X   -0.001602   0.000847  -0.003199  -0.064503   0.122124
    8  C  1  Y   -0.000390  -0.001431   0.022102  -0.025871   0.028669
    9  C  1  Z    0.000432   0.001542  -0.021845   0.026489  -0.006693
   10  C  1 XX   -0.001992  -0.005806   0.010432   0.005248  -0.010437
   11  C  1 YY   -0.001824  -0.006376  -0.007141  -0.003394   0.011510
   12  C  1 ZZ   -0.001838  -0.006408  -0.004672  -0.004947   0.008280
   13  C  1 XY    0.000083   0.000046   0.001693  -0.010432   0.012802
   14  C  1 XZ   -0.000052   0.000028  -0.000133   0.007012  -0.006250
   15  C  1 YZ    0.000050   0.000061   0.005235  -0.007675   0.004688
   16  C  2  S    0.960093  -0.257040  -0.145908  -0.132660   0.007798
   17  C  2  S    0.038767  -0.010631   0.282754   0.259313  -0.024929
   18  C  2  X    0.000141  -0.000460   0.114897  -0.149397  -0.360469
   19  C  2  Y   -0.000141   0.000057  -0.020822  -0.011457   0.123366
   20  C  2  Z    0.000079  -0.000045   0.016882   0.005857  -0.125330
   21  C  2  S   -0.009728   0.006895   0.216206   0.282426   0.009355
   22  C  2  X    0.000378   0.002151  -0.000346  -0.064178  -0.138543
   23  C  2  Y    0.000585   0.000183  -0.004384   0.004889   0.046688
   24  C  2  Z   -0.000490  -0.000200   0.001745  -0.008551  -0.049529
   25  C  2 XX   -0.005944   0.001171   0.016351   0.001083  -0.001289
   26  C  2 YY   -0.006522   0.001580  -0.009721  -0.001390   0.006575
   27  C  2 ZZ   -0.006511   0.001580  -0.008045   0.001355   0.010096
   28  C  2 XY   -0.000067   0.000162  -0.002486  -0.000119   0.002452
   29  C  2 XZ    0.000078  -0.000128   0.002383   0.000826   0.001230
   30  C  2 YZ   -0.000070   0.000030  -0.006652  -0.013622  -0.008145
   31  H  3  S   -0.000137  -0.000004   0.067762   0.148705   0.063458
   32  H  3  S    0.002250   0.000051   0.012997   0.068232   0.046129
   33  H  4  S   -0.000268  -0.000067   0.057099   0.137599   0.191144
   34  H  4  S    0.001579  -0.000658   0.006943   0.062118   0.156713
   35  H  5  S   -0.000081  -0.000042   0.100322  -0.152273   0.146762
   36  H  5  S    0.001162   0.002714   0.016149  -0.066824   0.114606
   37  H  6  S   -0.000061   0.000053   0.101162  -0.134215   0.081489
   38  H  6  S    0.001156   0.002635   0.018432  -0.057889   0.064594

                      6          7          8          9         10
                   -0.4695    -0.4347    -0.1582    -0.1106     0.1662
                     A          A          A          A          A   
    1  C  1  S   -0.007058   0.009863   0.069655  -0.016205   0.031216
    2  C  1  S    0.015753  -0.017278  -0.158903   0.034140  -0.046744
    3  C  1  X    0.001244  -0.131280  -0.041326   0.017896   0.101380
    4  C  1  Y    0.273704   0.146905   0.386751  -0.142240  -0.063936
    5  C  1  Z    0.340675   0.015208  -0.372975   0.039322   0.016426
    6  C  1  S    0.009840  -0.021235  -0.258287   0.081779  -0.188219
    7  C  1  X   -0.000279  -0.063188  -0.057856   0.021070   0.173043
    8  C  1  Y    0.117656   0.060755   0.314157  -0.133175  -0.157283
    9  C  1  Z    0.143460   0.015379  -0.310378   0.033078   0.028823
   10  C  1 XX    0.005361  -0.001567   0.008237  -0.005323   0.009638
   11  C  1 YY    0.017243   0.005286   0.000820  -0.002030   0.000921
   12  C  1 ZZ   -0.024736  -0.005867   0.003716   0.004426  -0.000767
   13  C  1 XY    0.014744  -0.010021  -0.003532  -0.026789  -0.003346
   14  C  1 XZ    0.010806   0.016143  -0.007474  -0.024946   0.006036
   15  C  1 YZ    0.000423  -0.006477   0.002566  -0.000291   0.004788
   16  C  2  S   -0.001365  -0.020206  -0.020178   0.003516  -0.137733
   17  C  2  S    0.004379   0.044732   0.048312  -0.010077   0.178952
   18  C  2  X   -0.003914   0.182347   0.036734  -0.021511  -0.199365
   19  C  2  Y    0.010541   0.274058   0.063122   0.439448   0.054666
   20  C  2  Z    0.163422  -0.253517   0.132197   0.376334  -0.065507
   21  C  2  S    0.004068   0.037432   0.018455   0.000280   1.915593
   22  C  2  X   -0.002349   0.073747  -0.029216  -0.000620  -0.662913
   23  C  2  Y   -0.004162   0.146414   0.046054   0.401182   0.119802
   24  C  2  Z    0.072083  -0.139421   0.110973   0.343375  -0.131409
   25  C  2 XX    0.000300  -0.000804   0.004302  -0.000985  -0.012666
   26  C  2 YY   -0.001591  -0.004165  -0.004279  -0.001184  -0.004875
   27  C  2 ZZ    0.001052  -0.001463  -0.003730   0.003002  -0.006244
   28  C  2 XY    0.013625  -0.014144   0.021447  -0.007049   0.000654
   29  C  2 XZ    0.006213   0.021554  -0.022735   0.002705  -0.002749
   30  C  2 YZ   -0.000561   0.002384   0.005830  -0.001394  -0.000381
   31  H  3  S    0.054745  -0.247706   0.100034  -0.022282  -0.045337
   32  H  3  S    0.047455  -0.235612   0.135955  -0.031476  -1.142930
   33  H  4  S   -0.056853   0.167866  -0.110831   0.020230  -0.071030
   34  H  4  S   -0.051685   0.165294  -0.186058   0.044142  -1.452687
   35  H  5  S    0.209707   0.007544   0.027988  -0.123282   0.009571
   36  H  5  S    0.190624   0.008965   0.024776  -0.198227   0.167874
   37  H  6  S   -0.229713  -0.097759   0.076417   0.101458  -0.009350
   38  H  6  S   -0.210133  -0.094443   0.094485   0.177997  -0.036954

                     11         12         13         14         15
                    0.1838     0.2223     0.2401     0.3820     0.5553
                     A          A          A          A          A   
    1  C  1  S   -0.121230   0.042457   0.010540  -0.079435  -0.010554
    2  C  1  S    0.118987  -0.066260  -0.010020   0.018149  -0.262506
    3  C  1  X    0.184972   0.007450  -0.044797  -0.172910   0.627720
    4  C  1  Y    0.042040  -0.086130  -0.282565  -0.058745  -0.132040
    5  C  1  Z   -0.118824   0.036945  -0.298478   0.032585   0.016722
    6  C  1  S    2.352266  -0.952108  -0.252718   2.857315  -0.438623
    7  C  1  X    0.534195  -0.136604  -0.140948  -2.827404  -0.678278
    8  C  1  Y    0.283054  -0.562708  -0.950096   0.163265   0.045976
    9  C  1  Z   -0.509748   0.430603  -1.020308  -0.202089   0.018915
   10  C  1 XX   -0.009351  -0.013220   0.006092  -0.024032  -0.066369
   11  C  1 YY   -0.009945   0.007116   0.000752   0.007344   0.007474
   12  C  1 ZZ   -0.009248   0.004954  -0.003527   0.011280   0.012297
   13  C  1 XY   -0.000701  -0.017955   0.006886   0.000200   0.018734
   14  C  1 XZ    0.004525   0.021363   0.003205   0.002136  -0.014891
   15  C  1 YZ   -0.002528  -0.009629  -0.000417   0.014754   0.003765
   16  C  2  S    0.010977   0.006220   0.004314   0.079765  -0.036428
   17  C  2  S    0.031335  -0.044679   0.003358  -0.079708  -0.352975
   18  C  2  X   -0.011258   0.097836   0.035276  -0.225695  -0.460799
   19  C  2  Y    0.105572   0.261807  -0.018396   0.064895  -0.084482
   20  C  2  Z   -0.113042  -0.290257   0.067013  -0.092200   0.070090
   21  C  2  S   -0.318353  -0.044596  -0.145122  -2.754452   0.255458
   22  C  2  X   -0.323475   0.634911   0.058664  -2.734803   1.296409
   23  C  2  Y    0.164054   0.837105   0.234924   0.626141  -0.030036
   24  C  2  Z   -0.145737  -0.874951   0.435875  -0.616820   0.029491
   25  C  2 XX    0.015333  -0.009861   0.000148   0.001349  -0.118582
   26  C  2 YY    0.002047   0.001560   0.013207  -0.002337   0.007518
   27  C  2 ZZ   -0.001857  -0.000657  -0.013154  -0.005506   0.004544
   28  C  2 XY    0.005104   0.005484  -0.016761  -0.012154   0.024850
   29  C  2 XZ   -0.008142  -0.009671  -0.013399   0.011624  -0.031258
   30  C  2 YZ   -0.003025   0.002948  -0.000587   0.011546   0.002283
   31  H  3  S    0.053455   0.045577  -0.006665  -0.052453   0.026336
   32  H  3  S    0.320249   1.636859  -0.074178  -0.217970   0.140016
   33  H  4  S   -0.012492  -0.079266   0.009591   0.056208  -0.168918
   34  H  4  S   -0.392029  -0.959398   0.290480  -1.124373   0.534752
   35  H  5  S   -0.011663  -0.039348   0.050649   0.032342   0.037955
   36  H  5  S   -1.335356   0.664077   1.732299   0.695501   0.052878
   37  H  6  S   -0.035726  -0.052466  -0.053046   0.072253   0.073100
   38  H  6  S   -1.581350   0.370217  -1.436520   0.375113  -0.108875

                     16         17         18         19         20
                    0.6426     0.6447     0.6948     0.7511     0.7986
                     A          A          A          A          A   
    1  C  1  S    0.017174  -0.011411  -0.005792   0.048136  -0.016841
    2  C  1  S   -0.178313   0.108203   0.065828   0.160170   0.340487
    3  C  1  X    0.016588  -0.085341  -0.098532   0.356602  -0.329960
    4  C  1  Y    0.351647  -0.547885  -0.477895  -0.382800   0.011215
    5  C  1  Z   -0.735942   0.118089  -0.314464   0.243705   0.193440
    6  C  1  S   -0.244901   0.109754  -0.125701  -0.947165  -1.765708
    7  C  1  X    0.009597   0.369050   0.378932  -0.009656   0.961997
    8  C  1  Y   -0.130317   0.847604   1.132374   0.627530  -0.160908
    9  C  1  Z    1.060042   0.146289   0.971708  -0.389742  -0.347033
   10  C  1 XX   -0.051112   0.025308  -0.011312   0.111640  -0.084883
   11  C  1 YY   -0.040617  -0.036394  -0.043271  -0.017682   0.045331
   12  C  1 ZZ    0.033739   0.043517   0.063378   0.002797   0.033587
   13  C  1 XY   -0.002645  -0.001708  -0.065541   0.027200   0.048431
   14  C  1 XZ   -0.015620   0.007511  -0.059118  -0.031739  -0.048886
   15  C  1 YZ    0.010211  -0.009418  -0.004474   0.035226  -0.008296
   16  C  2  S    0.001055   0.003895   0.007199  -0.047006   0.056005
   17  C  2  S   -0.051154   0.038685   0.051529   0.221906   0.315278
   18  C  2  X   -0.074183   0.036800  -0.045304   0.353123  -0.634026
   19  C  2  Y   -0.139932  -0.670604   0.434177   0.354525   0.083903
   20  C  2  Z   -0.419941  -0.389873   0.446853  -0.398219  -0.161169
   21  C  2  S    0.239655   0.061871   0.127518   0.119085  -0.203826
   22  C  2  X    0.261136  -0.021534   0.217689   0.080229   2.250670
   23  C  2  Y   -0.080753   0.596689  -0.842577  -0.973899  -0.286418
   24  C  2  Z    0.415701   0.231113  -0.850263   1.018888   0.545064
   25  C  2 XX    0.016398   0.005618   0.028854  -0.098282   0.131552
   26  C  2 YY   -0.013784  -0.003992  -0.017389   0.041237   0.021214
   27  C  2 ZZ    0.005044   0.005552   0.018707   0.051990   0.049442
   28  C  2 XY   -0.010962  -0.003652   0.024075  -0.071447  -0.051889
   29  C  2 XZ    0.010024  -0.015871   0.019859   0.075652   0.062482
   30  C  2 YZ    0.003540  -0.006993  -0.012972   0.008427  -0.143281
   31  H  3  S   -0.170804   0.139138   0.100885  -0.455083   0.332916
   32  H  3  S   -0.046497   0.039428   0.049448  -0.000931   0.628160
   33  H  4  S    0.226926  -0.113581   0.029093   0.253522   0.685426
   34  H  4  S    0.054513  -0.029290  -0.019725   0.345991   0.457098
   35  H  5  S   -0.123709  -0.277706  -0.369465   0.207808   0.075187
   36  H  5  S   -0.065698  -0.409736  -0.231237  -0.073196   0.029465
   37  H  6  S    0.278851   0.119773   0.325059   0.228729   0.061135
   38  H  6  S    0.245936   0.126161   0.019237   0.074687  -0.262265

                     21         22         23         24         25
                    0.9029     0.9421     0.9697     1.0007     1.0732
                     A          A          A          A          A   
    1  C  1  S   -0.029145   0.028156   0.042593  -0.034790   0.037095
    2  C  1  S   -0.037801   0.399892   0.233242  -0.212576  -1.224328
    3  C  1  X   -0.131004   0.301631   0.501024  -0.087174  -0.454514
    4  C  1  Y   -0.017033  -0.396476   0.398742  -0.128450  -0.236985
    5  C  1  Z    0.070921  -0.595006   0.303565  -0.011411   0.142193
    6  C  1  S    0.114359  -0.864363  -0.508743   0.013489   2.716192
    7  C  1  X    0.247909  -1.004283  -1.395816   1.130625   0.330195
    8  C  1  Y    0.278535   0.333683  -0.986603   0.512366   0.320230
    9  C  1  Z   -0.393139   1.239416  -0.151416  -0.307649  -0.140323
   10  C  1 XX   -0.083733   0.079734   0.085768  -0.054257  -0.076003
   11  C  1 YY    0.027051   0.055077  -0.045974   0.027136  -0.055035
   12  C  1 ZZ    0.024351  -0.042273   0.060301  -0.025257  -0.034064
   13  C  1 XY   -0.053141   0.073413  -0.115055   0.016746   0.076168
   14  C  1 XZ    0.048952   0.133838  -0.027194  -0.004374  -0.010701
   15  C  1 YZ   -0.030604   0.020795   0.042060  -0.050428   0.106309
   16  C  2  S    0.006926   0.022610   0.016871   0.008223  -0.001840
   17  C  2  S    0.004350   0.332510   0.144073  -1.553610  -0.093579
   18  C  2  X   -0.075888   0.262002   0.564515   0.307893   0.162854
   19  C  2  Y    0.616794   0.007445  -0.113076   0.114817   0.010395
   20  C  2  Z   -0.705645   0.078368   0.036800  -0.086360   0.013057
   21  C  2  S   -0.058160  -0.906100  -0.652507   3.601495  -0.197547
   22  C  2  X    0.051065  -0.314814  -0.785768  -0.209016  -0.433507
   23  C  2  Y   -1.179602   0.263171   0.562132  -0.650523   0.155161
   24  C  2  Z    1.353152  -0.456874  -0.387331   0.597802  -0.219751
   25  C  2 XX    0.065749   0.017336  -0.040594  -0.096922  -0.050467
   26  C  2 YY   -0.016424   0.019512   0.010898  -0.078815   0.025988
   27  C  2 ZZ   -0.024104   0.025214   0.040897  -0.067426   0.020261
   28  C  2 XY    0.102461  -0.027303   0.108565  -0.021551  -0.007873
   29  C  2 XZ   -0.109517  -0.118411  -0.019334   0.024796  -0.026852
   30  C  2 YZ    0.017511  -0.064424  -0.087600  -0.045041  -0.037576
   31  H  3  S    0.536089   0.489324   0.666489   0.227305   0.277506
   32  H  3  S   -1.377044  -0.170468  -0.496358  -1.296845  -0.239825
   33  H  4  S   -0.598290   0.160482   0.283728   0.549749  -0.040193
   34  H  4  S    1.577818  -0.197297  -0.546856  -0.836561  -0.176935
   35  H  5  S   -0.132135   0.591353  -0.260058  -0.159198   0.751200
   36  H  5  S   -0.010438  -0.443644   1.559416  -0.618954  -1.326911
   37  H  6  S   -0.099382  -0.465712   0.536441  -0.336974   0.625949
   38  H  6  S   -0.092361   1.805470  -0.222136  -0.220788  -1.026309

                     26         27         28         29         30
                    1.1963     1.5916     1.7236     1.7900     1.9886
                     A          A          A          A          A   
    1  C  1  S   -0.075717   0.008004  -0.007918   0.000999  -0.060902
    2  C  1  S   -1.565304   0.077421  -0.202376   0.020482  -0.493511
    3  C  1  X    0.270046  -0.021138   0.016955  -0.021254   0.107438
    4  C  1  Y   -0.099914  -0.143784  -0.094750  -0.021579   0.106573
    5  C  1  Z    0.064534  -0.156767   0.101811  -0.068304  -0.059015
    6  C  1  S    5.440893  -0.274824   0.174195   0.096908   2.107651
    7  C  1  X   -1.217311  -0.041130   0.315797  -0.196129  -0.333773
    8  C  1  Y    0.816389  -0.047094   0.176647  -0.286650   0.263734
    9  C  1  Z   -0.828011   0.140083  -0.335592  -0.143711  -0.183460
   10  C  1 XX   -0.038304  -0.003702  -0.203178   0.058393   0.290667
   11  C  1 YY   -0.045713   0.465128   0.075691  -0.097532  -0.167762
   12  C  1 ZZ   -0.147947  -0.455533   0.113164   0.042850  -0.187031
   13  C  1 XY   -0.065553  -0.281323  -0.399166  -0.053221   0.243900
   14  C  1 XZ    0.026427  -0.290427   0.420182  -0.286659  -0.262080
   15  C  1 YZ   -0.211070   0.121230   0.505998  -0.120174   0.626435
   16  C  2  S    0.026484   0.000731   0.006716  -0.001382   0.025115
   17  C  2  S    0.945223   0.005912   0.083184  -0.023714   0.243117
   18  C  2  X    0.170475  -0.004599  -0.065523   0.006791  -0.042239
   19  C  2  Y   -0.015370  -0.097119  -0.051464  -0.028657   0.105560
   20  C  2  Z    0.019281  -0.087472   0.050913  -0.044870  -0.089156
   21  C  2  S   -3.934548   0.028723  -0.161976  -0.066584  -1.412436
   22  C  2  X   -1.685801   0.075957   0.449216  -0.201229  -0.414893
   23  C  2  Y   -0.108985   0.119026  -0.321298   0.237809   0.158575
   24  C  2  Z    0.135530  -0.047975   0.413249  -0.076253  -0.251502
   25  C  2 XX    0.008280   0.008680   0.127787  -0.030597  -0.113645
   26  C  2 YY    0.066494   0.112256  -0.252692  -0.787091   0.062451
   27  C  2 ZZ    0.072973  -0.121394   0.138972   0.813296   0.030601
   28  C  2 XY    0.056399   0.412898   0.099215   0.026082  -0.423476
   29  C  2 XZ   -0.016228   0.404140  -0.140575   0.079320   0.249876
   30  C  2 YZ   -0.089480   0.029014   0.402896  -0.021334   0.214750
   31  H  3  S   -0.014846   0.047588  -0.109022   0.034708   0.508181
   32  H  3  S   -0.039250   0.050408   0.117932  -0.021209  -0.019911
   33  H  4  S    0.327157  -0.035824   0.416696  -0.153842  -0.164123
   34  H  4  S    0.070682  -0.010378   0.225319  -0.086587   0.081791
   35  H  5  S   -0.418526   0.219904   0.001892   0.223055  -0.513391
   36  H  5  S   -0.572751  -0.098036  -0.182657   0.152493  -0.198631
   37  H  6  S   -0.496618  -0.080778  -0.076237  -0.174639  -0.423719
   38  H  6  S   -0.481759   0.220053  -0.245445  -0.039132  -0.194611

                     31         32         33         34         35
                    2.1405     2.1663     2.2499     2.5859     2.6565
                     A          A          A          A          A   
    1  C  1  S    0.024116   0.003634  -0.012027  -0.005702  -0.004459
    2  C  1  S    0.236047  -0.168685  -0.041592   0.000656   0.020242
    3  C  1  X   -0.135702   0.196342  -0.093373   0.039859   0.082488
    4  C  1  Y    0.046368  -0.089997  -0.062166   0.066794  -0.068047
    5  C  1  Z   -0.023964   0.048675  -0.126930   0.016716   0.107402
    6  C  1  S   -0.453280  -0.525098   0.626635   0.092571  -0.159216
    7  C  1  X    0.148567  -0.267444  -0.103958   0.025369   0.281439
    8  C  1  Y   -0.071095  -0.285095  -0.303524  -0.008229  -0.048731
    9  C  1  Z    0.197741   0.002165  -0.521005  -0.069068   0.055656
   10  C  1 XX   -0.375229   0.418262  -0.138785   0.012995   0.024787
   11  C  1 YY    0.372549  -0.479470  -0.632396   0.200805   0.015388
   12  C  1 ZZ    0.153746  -0.078006   0.830720  -0.243377  -0.074513
   13  C  1 XY    0.224624  -0.009120   0.011434   0.634396   0.736878
   14  C  1 XZ   -0.144700  -0.007021  -0.043770   0.813244  -0.371378
   15  C  1 YZ   -0.301955  -0.385330   0.145326  -0.028773   0.294076
   16  C  2  S    0.040593  -0.006864   0.015413  -0.005241  -0.004783
   17  C  2  S    0.380328  -0.151547   0.137232  -0.007763   0.102535
   18  C  2  X    0.231906  -0.205757   0.054382  -0.008828   0.145818
   19  C  2  Y   -0.040023   0.032361  -0.006117   0.094549   0.021721
   20  C  2  Z    0.046224  -0.038825   0.003710   0.070655   0.028898
   21  C  2  S   -0.609754   0.080719  -0.540341   0.051851   0.200104
   22  C  2  X    0.126978   0.807629  -0.378110  -0.045237   0.180946
   23  C  2  Y    0.125825   0.114210   0.238505   0.049812   0.033091
   24  C  2  Z   -0.168313   0.035003   0.196953   0.090196  -0.011982
   25  C  2 XX   -0.372165   0.473481  -0.213361  -0.055977   0.405413
   26  C  2 YY    0.306763  -0.227868   0.263841  -0.211289  -0.218815
   27  C  2 ZZ    0.267432  -0.384615   0.020003   0.229320  -0.144759
   28  C  2 XY   -0.063668   0.067674   0.455229   0.259058   0.685233
   29  C  2 XZ   -0.003268   0.217432   0.423760   0.608071  -0.542762
   30  C  2 YZ    0.708686   0.579414  -0.054227  -0.066324   0.107241
   31  H  3  S    0.363530   0.287999   0.010928   0.096290  -0.380680
   32  H  3  S    0.176437   0.137664  -0.027456  -0.093463   0.252141
   33  H  4  S    0.261891   0.187945  -0.013382  -0.162536   0.373067
   34  H  4  S    0.003154   0.126997  -0.010361   0.073806  -0.179131
   35  H  5  S   -0.057568   0.335796   0.284344  -0.516438  -0.365628
   36  H  5  S    0.089431   0.106462   0.025124   0.215693   0.061248
   37  H  6  S    0.069066   0.143210  -0.608019   0.451726  -0.084794
   38  H  6  S    0.134710  -0.026849  -0.050094  -0.257136  -0.038106

                     36         37         38
                    2.8179     4.2368     4.3802
                     A          A          A   
    1  C  1  S    0.068869  -0.276796  -0.393062
    2  C  1  S   -0.247655   1.784700   2.365834
    3  C  1  X    0.684859  -0.182320   0.294115
    4  C  1  Y   -0.109508  -0.010164  -0.092903
    5  C  1  Z    0.077724   0.009386   0.083677
    6  C  1  S   -2.001982   0.974165   2.089854
    7  C  1  X    1.193308   0.199416  -0.091376
    8  C  1  Y   -0.119323   0.135084   0.210098
    9  C  1  Z    0.104153  -0.143085  -0.221448
   10  C  1 XX   -1.024146  -0.933711  -1.870822
   11  C  1 YY    0.492757  -1.074483  -1.490168
   12  C  1 ZZ    0.560081  -1.064662  -1.472592
   13  C  1 XY    0.194267  -0.050623   0.049867
   14  C  1 XZ   -0.231684   0.029587  -0.060496
   15  C  1 YZ    0.041482  -0.016298   0.017989
   16  C  2  S   -0.078919  -0.380097   0.268329
   17  C  2  S    0.277332   2.540914  -1.686551
   18  C  2  X    0.653908   0.036979   0.320618
   19  C  2  Y   -0.092444   0.009143  -0.053067
   20  C  2  Z    0.074595  -0.006113   0.048028
   21  C  2  S    2.006471   1.090795  -1.511138
   22  C  2  X    1.190924  -0.219625  -0.178204
   23  C  2  Y   -0.253014  -0.081343  -0.013560
   24  C  2  Z    0.258155   0.065139   0.019961
   25  C  2 XX    0.935376  -1.520766   1.428931
   26  C  2 YY   -0.510367  -1.465433   1.023368
   27  C  2 ZZ   -0.522039  -1.467834   1.020823
   28  C  2 XY   -0.398476  -0.004408  -0.103092
   29  C  2 XZ    0.381533  -0.004956   0.094168
   30  C  2 YZ   -0.093616   0.005057  -0.007366
   31  H  3  S    0.062502   0.112169  -0.041558
   32  H  3  S   -0.029199  -0.393535   0.178152
   33  H  4  S   -0.185776   0.120330  -0.078184
   34  H  4  S    0.260582  -0.276837   0.256030
   35  H  5  S    0.021106   0.110340   0.109514
   36  H  5  S   -0.101255  -0.369390  -0.442554
   37  H  6  S   -0.093139   0.085466   0.071533
   38  H  6  S   -0.013997  -0.352321  -0.409179
 ...... END OF ROHF CALCULATION ......
 STEP CPU TIME =     6.26 TOTAL CPU TIME =          6.3 (      0.1 MIN)
 TOTAL WALL CLOCK TIME=          6.8 SECONDS, CPU UTILIZATION IS    92.85%

     ---------------------------------------------------------------------
     PROPERTIES FOR THE BHHLYP   DFT FUNCTIONAL (ROHF TYPE) DENSITY MATRIX
     ---------------------------------------------------------------------

          -----------------
          ENERGY COMPONENTS
          -----------------

         WAVEFUNCTION NORMALIZATION =       1.0000000000

                ONE ELECTRON ENERGY =    -168.4158813857
                TWO ELECTRON ENERGY =      57.5024372614
           NUCLEAR REPULSION ENERGY =      32.5222144687
                                      ------------------
                       TOTAL ENERGY =     -78.3912296556

 ELECTRON-ELECTRON POTENTIAL ENERGY =      57.5024372614
  NUCLEUS-ELECTRON POTENTIAL ENERGY =    -246.2977231141
   NUCLEUS-NUCLEUS POTENTIAL ENERGY =      32.5222144687
                                      ------------------
             TOTAL POTENTIAL ENERGY =    -156.2730713840
               TOTAL KINETIC ENERGY =      77.8818417284
                 VIRIAL RATIO (V/T) =       2.0065405224

          ---------------------------------------
          MULLIKEN AND LOWDIN POPULATION ANALYSES
          ---------------------------------------

     ATOMIC MULLIKEN POPULATION IN EACH MOLECULAR ORBITAL

                      1          2          3          4          5

                  2.000000   2.000000   2.000000   2.000000   2.000000

    1             0.133871   1.864656   0.982957   0.556862   0.649020
    2             1.865256   0.134322   0.781122   0.738911   0.757830
    3             0.000410  -0.000001   0.040551   0.198593   0.036578
    4             0.000265   0.000021   0.026335   0.169190   0.323451
    5             0.000097   0.000517   0.082319   0.188736   0.174174
    6             0.000101   0.000486   0.086715   0.147708   0.058947

                      6          7          8          9

                  2.000000   2.000000   1.000000   1.000000

    1             1.003368   0.213246   0.847494   0.058431
    2             0.179354   0.970544   0.061224   0.865176
    3             0.024923   0.507692   0.030536   0.001268
    4             0.027914   0.233772   0.046151   0.001832
    5             0.339817   0.000374   0.001134   0.040622
    6             0.424624   0.074372   0.013460   0.032671

     ATOMIC SPIN POPULATION (ALPHA MINUS BETA)
       ATOM         MULL.POP.                    LOW.POP.
    1 C             0.905925                     0.899454
    2 C             0.926400                     0.914169
    3 H             0.031804                     0.034432
    4 H             0.047983                     0.051399
    5 H             0.041756                     0.047955
    6 H             0.046132                     0.052592

               ----- POPULATIONS IN EACH AO -----
                             MULLIKEN      LOWDIN
              1  C  1  S      1.99372     1.98034
              2  C  1  S      0.69197     0.36984
              3  C  1  X      0.74545     0.65737
              4  C  1  Y      0.63812     0.58502
              5  C  1  Z      0.64732     0.58838
              6  C  1  S      0.62474     0.34393
              7  C  1  X      0.21707     0.37372
              8  C  1  Y      0.36148     0.44218
              9  C  1  Z      0.35616     0.44770
             10  C  1 XX      0.01128     0.17948
             11  C  1 YY     -0.00432     0.13684
             12  C  1 ZZ      0.00036     0.14181
             13  C  1 XY      0.01323     0.02646
             14  C  1 XZ      0.01140     0.02338
             15  C  1 YZ      0.00192     0.00308
             16  C  2  S      1.99351     1.97993
             17  C  2  S      0.67709     0.36475
             18  C  2  X      0.73749     0.65156
             19  C  2  Y      0.61945     0.57720
             20  C  2  Z      0.62321     0.57424
             21  C  2  S      0.61803     0.35477
             22  C  2  X      0.23623     0.38721
             23  C  2  Y      0.41768     0.47777
             24  C  2  Z      0.40509     0.47938
             25  C  2 XX      0.02008     0.19144
             26  C  2 YY     -0.01157     0.12444
             27  C  2 ZZ     -0.00718     0.13061
             28  C  2 XY      0.00985     0.02054
             29  C  2 XZ      0.01152     0.02354
             30  C  2 YZ      0.00326     0.00449
             31  H  3  S      0.49840     0.46637
             32  H  3  S      0.34215     0.38028
             33  H  4  S      0.47823     0.44427
             34  H  4  S      0.35070     0.39294
             35  H  5  S      0.53108     0.49035
             36  H  5  S      0.29671     0.34413
             37  H  6  S      0.52128     0.48576
             38  H  6  S      0.31781     0.35448

          ----- MULLIKEN ATOMIC OVERLAP POPULATIONS -----
          (OFF-DIAGONAL ELEMENTS NEED TO BE MULTIPLIED BY 2)

             1           2           3           4           5

    1    5.2130096
    2    0.4195171   5.3241930
    3   -0.0421777   0.3680410   0.5656886
    4   -0.0251296   0.3532098  -0.0561550   0.5580173
    5    0.3719965  -0.0504168   0.0022541  -0.0001788   0.5759884
    6    0.3726889  -0.0608038   0.0028986  -0.0008338  -0.0718536

             6

    6    0.5969894

          TOTAL MULLIKEN AND LOWDIN ATOMIC POPULATIONS
       ATOM         MULL.POP.    CHARGE          LOW.POP.     CHARGE
    1 C             6.309905   -0.309905         6.299541   -0.299541
    2 C             6.353740   -0.353740         6.341881   -0.341881
    3 H             0.840550    0.159450         0.846654    0.153346
    4 H             0.828930    0.171070         0.837209    0.162791
    5 H             0.827790    0.172210         0.834484    0.165516
    6 H             0.839086    0.160914         0.840231    0.159769

          -------------------------------
          BOND ORDER AND VALENCE ANALYSIS     BOND ORDER THRESHOLD=0.050
          -------------------------------

                   BOND                       BOND                       BOND
  ATOM PAIR DIST  ORDER      ATOM PAIR DIST  ORDER      ATOM PAIR DIST  ORDER
    1   2  1.364  1.155        1   5  1.056  0.919        1   6  1.087  0.922
    2   3  1.150  0.924        2   4  1.181  0.905

                       TOTAL       BONDED        FREE
      ATOM            VALENCE     VALENCE     VALENCE
    1 C                 3.858       3.054       0.804
    2 C                 3.847       3.012       0.835
    3 H                 0.932       0.931       0.001
    4 H                 0.934       0.931       0.002
    5 H                 0.913       0.911       0.002
    6 H                 0.918       0.916       0.002

          -----------------------------------------
          ATOMIC SPIN DENSITY AT THE NUCLEUS (A.U.)
          -----------------------------------------
                            SPIN DENS    ALPHA DENS     BETA DENS
    1  C            6.0     0.2693755      59.07793      58.80856
    2  C            6.0     0.0224133      58.91271      58.89030
    3  H            1.0     0.0177728       0.20390       0.18612
    4  H            1.0     0.0214414       0.19481       0.17337
    5  H            1.0     0.0276245       0.23039       0.20276
    6  H            1.0     0.0282226       0.22413       0.19591

          ---------------------
          ELECTROSTATIC MOMENTS
          ---------------------

 POINT   1           X           Y           Z (BOHR)    CHARGE
                -1.283723    0.238757   -0.239325       -0.00 (A.U.)
         DX          DY          DZ         /D/  (DEBYE)
    -0.072679    0.383892   -0.444049    0.591468
 ...... END OF PROPERTY EVALUATION ......
 STEP CPU TIME =     0.00 TOTAL CPU TIME =          6.3 (      0.1 MIN)
 TOTAL WALL CLOCK TIME=          6.8 SECONDS, CPU UTILIZATION IS    92.86%

 -----------------------------------------------------------------------
                    SFDFT CALCULATION FOR SCFTYP=ROHF
                          CODED BY NORIYUKI MINEZAWA
 -----------------------------------------------------------------------
  
 -TDDFT RUNTIME PARAMETERS-
    TRIPLET  = F
    NONEQ    = T
    NSTATE   =                    3
    IROOT    =                    1
    NTRIAL   =                    5
    MAXVEC   =                   50
    ILENG    =                  200
    MAXGRD   =                29029
    NRAD     =                   48
    NLEB     =                  110
 GAS PHASE COMPUTATION
  
 FOR AN EULER-MACLAURIN QUADRATURE USING  48 RADIAL POINTS:
 SMALLEST GAUSSIAN PRIMITIVE EXPONENT=        0.1612777588 OF TYPE -S-
 ON ATOM NUMBER   3 HAS RADIAL NORMALIZATION=  1.000000
  LARGEST GAUSSIAN PRIMITIVE EXPONENT=     3047.5248800000 OF TYPE -S-
 ON ATOM NUMBER   1 HAS RADIAL NORMALIZATION=  1.000000
  

          -----------------------------------------------
          SF-DFT INPUT PARAMETERS (EXTRACTED FROM $TDDFT)
          -----------------------------------------------

     NSTATE=       3  IROOT=       1 MAXVEC=      50
     NTRIAL=       5 CNVTOL=  1.00E-07

     ********** NOTE: THE CURRENT STATUS OF SFDFT **********

     (1) UHF AND ROHF REFERENCES ARE AVAILABLE.
     (2) COLLINEAR APPROXIMATION FOR XC FUNCTIONALS.
     (3) NEITHER LC NOR CAMB3LYP IS SUPPORTED.
     (4) INCORRECT ANALYTIC GRADIENT FOR META-GGA.
     (5) SOLVENT MODELS (EFP1 AND/OR C-PCM) ARE AVAILABLE.

     *******************************************************

 MEMORY REQUIRED FOR SFDFT   ITERATIONS IS    193756 WORDS.


 STATE      ITERATION      ENERGY         RESIDUE NORM
   1            1      -78.3667334351     0.06219325
   2            1      -78.3638296159     0.05024356
   3            1      -78.2944631921     0.10855889

 STATE      ITERATION      ENERGY         RESIDUE NORM
   1            2      -78.3709434878     0.01040662
   2            2      -78.3657751479     0.00408524
   3            2      -78.3165769198     0.02174801

 STATE      ITERATION      ENERGY         RESIDUE NORM
   1            3      -78.3710593322     0.00146943
   2            3      -78.3657955270     0.00065840
   3            3      -78.3171117776     0.00256569

 STATE      ITERATION      ENERGY         RESIDUE NORM
   1            4      -78.3710619411     0.00024316
   2            4      -78.3657961792     0.00013361
   3            4      -78.3171217202     0.00044126

 STATE      ITERATION      ENERGY         RESIDUE NORM
   1            5      -78.3710620048     0.00003600
   2            5      -78.3657961994     0.00002157
   3            5      -78.3171220420     0.00007130

 STATE      ITERATION      ENERGY         RESIDUE NORM
   1            6      -78.3710620062     0.00000519
   2            6      -78.3657961998     0.00000203
   3            6      -78.3171220486     0.00000994

 STATE      ITERATION      ENERGY         RESIDUE NORM
   1            7      -78.3710620062     0.00000071
   2            7      -78.3657961998     0.00000025
   3            7      -78.3171220488     0.00000183

 STATE      ITERATION      ENERGY         RESIDUE NORM
   1            8      -78.3710620062     0.00000008
   2            8      -78.3657961998     0.00000004
   3            8      -78.3171220488     0.00000016

 STATE      ITERATION      ENERGY         RESIDUE NORM
   1            9      -78.3710620062     0.00000001
   2            9      -78.3657961998     0.00000001
   3            9      -78.3171220488     0.00000002
  
   -----------------------------------  
     SPIN-FLIP CALCULATION CONVERGED
   -----------------------------------  
 NUMBER OF USED VECTORS / MAX =  29 / 150
 NUMBER OF ITERATIONS   / MAX =   9 / 100
 NUMBER OF SINGLE EXCITATIONS =   279
 NUMBER OF ATOMIC ORBITALS    =  38

     -----------------------------------
     ALPHA -> BETA SPIN-FLIP EXCITATIONS
     -----------------------------------

 STATE #   1  ENERGY =    0.548790 EV
 SYMMETRY OF STATE   =    A   
 S-SQUARED           =    0.0704
        DRF    COEF       OCC(A)    VIR(B)
        ---    ----       ------    ------
          6  0.052384         6  ->     8
          8  0.429544         8  ->     8
          9  0.563732         9  ->     8
         17  0.196020         8  ->     9
         18 -0.671136         9  ->     9

 STATE #   2  ENERGY =    0.692080 EV
 SYMMETRY OF STATE   =    A   
 S-SQUARED           =    1.9406
        DRF    COEF       OCC(A)    VIR(B)
        ---    ----       ------    ------
          8 -0.790894         8  ->     8
          9 -0.098816         9  ->     8
         18 -0.600727         9  ->     9

 STATE #   3  ENERGY =    2.016571 EV
 SYMMETRY OF STATE   =    A   
 S-SQUARED           =    0.0768
        DRF    COEF       OCC(A)    VIR(B)
        ---    ----       ------    ------
          6 -0.201808         6  ->     8
          7  0.071092         7  ->     8
          8  0.398687         8  ->     8
          9 -0.775733         9  ->     8
         17  0.073892         8  ->     9
         18 -0.397617         9  ->     9
         36  0.061053         9  ->    11
         45 -0.101135         9  ->    12
         81 -0.069202         9  ->    16

          ----------------------------
          SUMMARY OF SPIN-FLIP RESULTS
          ----------------------------

   STATE             ENERGY     EXCITATION     S-SQUARED

 0 NEGATIVE ROOT(S) FOUND.
   0  A          -78.3912296556    0.000               (REFERENCE STATE)
   1  A          -78.3710620062    0.549        0.0704
   2  A          -78.3657961998    0.692        1.9406
   3  A          -78.3171220488    2.017        0.0768
  
 SELECTING EXCITED STATE IROOT=   1 AT E=      -78.3710620062
 AS THE STATE OF INTEREST.

 ..... DONE WITH SFDFT   EXCITATION ENERGIES .....
 STEP CPU TIME =     0.07 TOTAL CPU TIME =          6.4 (      0.1 MIN)
 TOTAL WALL CLOCK TIME=          6.9 SECONDS, CPU UTILIZATION IS    92.93%
               580000  WORDS OF DYNAMIC MEMORY USED
 EXECUTION OF GAMESS TERMINATED NORMALLY 20:30:37 10-MAR-2022    
 DDI: 263640 bytes (0.3 MB / 0 MWords) used by master data server.

 ----------------------------------------
 CPU timing information for all processes
 ========================================
 0: 6.387 + 0.27 = 6.414
 ----------------------------------------
Note: The following floating-point exceptions are signalling: IEEE_UNDERFLOW_FLAG IEEE_DENORMAL
 ddikick.x: exited gracefully.
