
 Distributed Data Interface kickoff program.
 Initiating 1 compute processes on 1 nodes to run the following command:
 /usr/local/gamess/gamess.00.x /home/webmo/webmo/yamnor/69/input 

          *******************************************************
          *                                                     *
          *      GAMESS VERSION = 30 SEP 2021 (R2 Patch 1)      *
          *                                                     *
          *              doi.org/10.1063/5.0005188              *
          *                                                     *
          **************** 64 BIT LINUX VERSION *****************

  GAMESS HAS BEEN MADE POSSIBLE WITH IMPORTANT CONTRIBUTIONS FROM
  THE FOLLOWING INDIVIDUALS (IN ALPHABETICAL ORDER):

     IVANA ADAMOVIC, CHRISTINE AIKENS, TOMOKO AKAMA,
     YURI ALEXEEV, YURIKO AOKI, POOJA ARORA, TOSHIO ASADA,
     ANDREY ASADCHEV, KIM K. BALDRIDGE, PRADIPTA BANDYOPADHYAY,
     TAYLOR A. BARNES, MARIA BARYSZ, ROB BELL,
     JONATHAN BENTZ, COLLEEN BERTONI,
     JERRY A. BOATZ, BRETT BODE, KURT BRORSEN, KURT R. BRORSEN,
     LAIMUTIS BYTAUTAS, CALEB CARLIN, LAURA CARRINGTON,
     GALINA CHABAN, BENOIT CHAMPAGNE, WEI CHEN, MAHITO CHIBA,
     DAN CHIPMAN, CHEOL HO CHOI, TANNER CULPITT,
     DIPAYAN DATTA, PAUL DAY, ALBERT DEFUSCO,
     NUWAN DESILVA, J. EMILIANO DEUSTUA,
     TIM DUDLEY, MICHEL DUPUIS, STEVEN T. ELBERT,
     DMITRI FEDOROV, ALEX FINDLATER, GRAHAM FLETCHER,
     MARK FREITAG, CHRISTIAN FRIEDL, DAVID GARMER,
     IGOR S. GERASIMOV, KURT GLAESEMANN, MARK S. GORDON,
     JEFFREY GOUR, FENG LONG GU, EMILIE B. GUIDEZ,
     ANASTASIA GUNINA, SHARON HAMMES-SCHIFFER, MASATAKE HARUTA,
     KIMIHIKO HIRAO, YASUHIRO IKABATA, TZVETELIN IORDANOV,
     STEPHAN IRLE, KAZUYA ISHIMURA, JOE IVANIC, FRANK JENSEN,
     JAN H. JENSEN, VISVALDAS KAIRYS, MUNEAKI KAMIYA,
     MICHIO KATOUDA, NAOAKI KAWAKAMI, DAN KEMP, BERNARD KIRTMAN,
     KAZUO KITAURA, MARIUSZ KLOBUKOWSKI, MASATO KOBAYASHI,
     PRAKASHAN KORAMBATH, JACEK KORCHOWIEC, SHIRO KOSEKI,
     KAROL KOWALSKI, JIMMY KROMANN, STANISLAW KUCHARSKI,
     HENRY KURTZ, SAROM SOK LEANG, HUI LI, SHUHUA LI, WEI LI,
     JESSE LUTZ, ALEKSANDR O. LYKHIN, MARCIN MAKOWSKI,
     JOANI MATO, NIKITA MATSUNAGA, BENEDETTA MENNUCCI,
     GRANT MERRILL, NORIYUKI MINEZAWA, VLADIMIR MIRONOV,
     EISAKU MIYOSHI, JOHN A. MONTGOMERY JR., HIROTOSHI MORI,
     JONATHAN MULLIN, MONIKA MUSIAL, SHIGERU NAGASE,
     TAKESHI NAGATA, HIROMI NAKAI, TAKAHITO NAKAJIMA,
     YUYA NAKAJIMA, HARUYUKI NAKANO, HIROYA NAKATA, SEAN NEDD,
     HEATHER NETZLOFF, KIET A. NGUYEN, YOSHIO NISHIMOTO,
     BOSILJKA NJEGIC, RYAN OLSON, MIKE PAK, ROBERTO PEVERATI,
     BUU PHAM, PIOTR PIECUCH, ANNA POMOGAEVA, DAVID POOLE,
     SPENCER PRUITT, OLIVIER QUINET, LUKE ROSKOP,
     KLAUS RUEDENBERG, ANDREW SAND, TOSAPORN SATTASATHUCHANA,
     NOZOMI SAWADA, MICHAEL W. SCHMIDT, PATRICK E. SCHNEIDER,
     JUNJI SEINO, PRACHI SHARMA, JUN SHEN, JIM SHOEMAKER,
     YINAN SHU, DEJUN SI, JONATHAN SKONE, LYUDMILA SLIPCHENKO,
     TONY SMITH, JIE SONG, MARK SPACKMAN, CASPER STEINMANN,
     WALT STEVENS, PEIFENG SU, SHUJUN SU, CHET SWALINA,
     TETSUYA TAKETSUGU, ZHEN TAO, NANDUN THELLAMUREGE
     SEIKEN TOKURA, JACOPO TOMASI, TSUGUKI TOUMA, TAKAO TSUNEDA,
     HIROAKI UMEDA, JORGE LUIS GALVEZ VALLEJO, YALI WANG,
     SIMON WEBB, AARON WEST, THERESA L. WINDUS, MARTA WLOCH,
     PENG XU, KIYOSHI YAGI, SUSUMU YANAGISAWA, YANG YANG,
     SOOHAENG YOO, TAKESHI YOSHIKAWA, FEDERICO ZAHARIEV,
     TOBY ZENG

  WHO ARE SUPPORTED BY THEIR INSTITUTION/UNIVERSITY/COMPANY/GROUP
  (IN ALPHABETICAL ORDER):

     EP ANALYTICS, FACULTES UNIVERSITAIRES NOTRE-DAME DE LA PAIX,
     INSTITUTE FOR MOLECULAR SCIENCE, IOWA STATE UNIVERSITY,
     JACKSON STATE UNIVERSITY, JOHANNES KEPLER UNIVERSITY LINZ,
     KYUSHU UNIVERSITY, MICHIGAN STATE UNIVERSITY,
     MIE UNIVERSITY, THE MOLECULAR SCIENCES SOFTWARE INSTITUTE,
     MOSCOW STATE UNIVERSITY,
     N. COPERNICUS UNIVERSITY, NAGOYA UNIVERSITY,
     NANJING UNIVERSITY, NAT. INST. OF ADVANCED INDUSTRIAL
     SCIENCE AND TECHNOLOGY, NATIONAL INST. OF STANDARDS AND
     TECHNOLOGY, NESMEYANOV INSTITUTE OF ORGANOELEMENT COMPOUNDS
     OF RUSSIAN ACADEMY OF SCIENCES, OSAKA PREFECTURE UNIVERSITY,
     PENNSYLVANIA STATE UNIVERSITY, TOKYO INSTITUTE OF TECHNOLOGY,
     UNIVERSITY OF AARHUS, UNIVERSITY OF ALBERTA,
     UNIVERSITY OF CALIFORNIA AT SANTA BARBARA,
     UNIVERSITY OF COPENHAGEN, UNIVERSITY OF IOWA,
     UNIVERSITY OF MEMPHIS, UNIVERSITY OF MINNESOTA,
     UNIVERSITY OF NEBRASKA, UNIVERSITY OF NEW ENGLAND,
     UNIVERSITY OF NOTRE DAME, UNIVERSITY OF PISA,
     UNIVERSITY OF SILESIA, UNIVERSITY OF TOKYO,
     UNIVERSITY OF ZURICH, WASEDA UNIVERSITY, YALE UNIVERSITY

  GAMESS SOFTWARE MANAGEMENT TEAM FOR THIS RELEASE:
     MARK S. GORDON (TEAM LEAD),
     BRETT BODE (SENIOR ADVISOR),
     GIUSEPPE BARCA,
     COLLEEN BERTONI,
     KRISTOPHER KEIPERT (ADVISOR),
     SAROM S. LEANG (DEVELOPMENT LEAD),
     BUU PHAM,
     JORGE LUIS GALVEZ VALLEJO (WEBSITE ADMINISTRATOR),
     PENG XU

 EXECUTION OF GAMESS BEGUN 18:22:16 10-MAR-2022    

            ECHO OF THE FIRST FEW INPUT CARDS -
 INPUT CARD> $CONTRL                                                                        
 INPUT CARD>   RUNTYP=OPTIMIZE                                                              
 INPUT CARD>   SCFTYP=RHF                                                                   
 INPUT CARD>   DFTTYP=BHHLYP                                                                
 INPUT CARD>   TDDFT=EXCITE                                                                 
 INPUT CARD>   ICHARG=0                                                                     
 INPUT CARD>   MULT=1                                                                       
 INPUT CARD>   COORD=UNIQUE                                                                 
 INPUT CARD> $END                                                                           
 INPUT CARD> $SYSTEM                                                                        
 INPUT CARD>   MWORDS=128                                                                   
 INPUT CARD> $END                                                                           
 INPUT CARD> $BASIS                                                                         
 INPUT CARD>   GBASIS=N31                                                                   
 INPUT CARD>   NGAUSS=6                                                                     
 INPUT CARD>   NDFUNC=1                                                                     
 INPUT CARD> $END                                                                           
 INPUT CARD> $TDDFT                                                                         
 INPUT CARD>   NSTATE=3                                                                     
 INPUT CARD>   IROOT=1                                                                      
 INPUT CARD> $END                                                                           
 INPUT CARD> $STATPT                                                                        
 INPUT CARD>   NSTEP=100                                                                    
 INPUT CARD> $END                                                                           
 INPUT CARD> $DATA                                                                          
 INPUT CARD>C2H4                                                                            
 INPUT CARD>C1 1                                                                            
 INPUT CARD>C 6  0.00000000  0.00000000  0.00000000                                         
 INPUT CARD>C 6 -1.32029884  0.00001048 -0.00023551                                         
 INPUT CARD>H 1 -1.88916197 -0.91657892 -0.00030266                                         
 INPUT CARD>H 1 -1.88916423  0.91658755 -0.00032712                                         
 INPUT CARD>H 1  0.56876188  0.91665251  0.00010461                                         
 INPUT CARD>H 1  0.56877229 -0.91667652  0.00003663                                         
 INPUT CARD> $END                                                                           
  128000000 WORDS OF MEMORY AVAILABLE

     BASIS OPTIONS
     -------------
     GBASIS=N31          IGAUSS=       6      POLAR=POPN31  
     NDFUNC=       1     NFFUNC=       0     DIFFSP=       F
     NPFUNC=       0      DIFFS=       F     BASNAM=        


     RUN TITLE
     ---------
 C2H4                                                                            

 THE POINT GROUP OF THE MOLECULE IS C1      
 THE ORDER OF THE PRINCIPAL AXIS IS     1

 ATOM      ATOMIC                      COORDINATES (BOHR)
           CHARGE         X                   Y                   Z
 C           6.0     0.0000000000        0.0000000000        0.0000000000
 C           6.0    -2.4950030295        0.0000198043       -0.0004450494
 H           1.0    -3.5699984697       -1.7320830049       -0.0005719445
 H           1.0    -3.5700027405        1.7320993133       -0.0006181672
 H           1.0     1.0748041055        1.7322220699        0.0001976842
 H           1.0     1.0748237775       -1.7322674422        0.0000692207

          INTERNUCLEAR DISTANCES (ANGS.)
          ------------------------------

                1 C          2 C          3 H          4 H          5 H     

   1 C       0.0000000    1.3202989 *  2.0997738 *  2.0997796 *  1.0787687 *
   2 C       1.3202989 *  0.0000000    1.0787685 *  1.0787592 *  2.0997102 *
   3 H       2.0997738 *  1.0787685 *  0.0000000    1.8331665 *  3.0662888  
   4 H       2.0997796 *  1.0787592 *  1.8331665 *  0.0000000    2.4579261 *
   5 H       1.0787687 *  2.0997102 *  3.0662888    2.4579261 *  0.0000000  
   6 H       1.0787946 *  2.0997392 *  2.4579343 *  3.0663185    1.8333290 *

                6 H     

   1 C       1.0787946 *
   2 C       2.0997392 *
   3 H       2.4579343 *
   4 H       3.0663185  
   5 H       1.8333290 *
   6 H       0.0000000  

  * ... LESS THAN  3.000


     ATOMIC BASIS SET
     ----------------
 THE CONTRACTED PRIMITIVE FUNCTIONS HAVE BEEN UNNORMALIZED
 THE CONTRACTED BASIS FUNCTIONS ARE NOW NORMALIZED TO UNITY

  SHELL TYPE  PRIMITIVE        EXPONENT          CONTRACTION COEFFICIENT(S)

 C         

      1   S       1          3047.5248800    0.001834737132
      1   S       2           457.3695180    0.014037322813
      1   S       3           103.9486850    0.068842622264
      1   S       4            29.2101553    0.232184443216
      1   S       5             9.2866630    0.467941348435
      1   S       6             3.1639270    0.362311985337

      2   L       7             7.8682723   -0.119332419775    0.068999066591
      2   L       8             1.8812885   -0.160854151696    0.316423960957
      2   L       9             0.5442493    1.143456437840    0.744308290898

      3   L      10             0.1687145    1.000000000000    1.000000000000

      4   D      11             0.8000000    1.000000000000

 C         

      5   S      12          3047.5248800    0.001834737132
      5   S      13           457.3695180    0.014037322813
      5   S      14           103.9486850    0.068842622264
      5   S      15            29.2101553    0.232184443216
      5   S      16             9.2866630    0.467941348435
      5   S      17             3.1639270    0.362311985337

      6   L      18             7.8682723   -0.119332419775    0.068999066591
      6   L      19             1.8812885   -0.160854151696    0.316423960957
      6   L      20             0.5442493    1.143456437840    0.744308290898

      7   L      21             0.1687145    1.000000000000    1.000000000000

      8   D      22             0.8000000    1.000000000000

 H         

      9   S      23            18.7311370    0.033494604338
      9   S      24             2.8253944    0.234726953484
      9   S      25             0.6401217    0.813757326146

     10   S      26             0.1612778    1.000000000000

 H         

     11   S      27            18.7311370    0.033494604338
     11   S      28             2.8253944    0.234726953484
     11   S      29             0.6401217    0.813757326146

     12   S      30             0.1612778    1.000000000000

 H         

     13   S      31            18.7311370    0.033494604338
     13   S      32             2.8253944    0.234726953484
     13   S      33             0.6401217    0.813757326146

     14   S      34             0.1612778    1.000000000000

 H         

     15   S      35            18.7311370    0.033494604338
     15   S      36             2.8253944    0.234726953484
     15   S      37             0.6401217    0.813757326146

     16   S      38             0.1612778    1.000000000000

 TOTAL NUMBER OF BASIS SET SHELLS             =   16
 NUMBER OF CARTESIAN GAUSSIAN BASIS FUNCTIONS =   38
 NUMBER OF ELECTRONS                          =   16
 CHARGE OF MOLECULE                           =    0
 SPIN MULTIPLICITY                            =    1
 NUMBER OF OCCUPIED ORBITALS (ALPHA)          =    8
 NUMBER OF OCCUPIED ORBITALS (BETA )          =    8
 TOTAL NUMBER OF ATOMS                        =    6
 THE NUCLEAR REPULSION ENERGY IS       33.6032259559

 SELECTED MURRAY-HANDY-LAMING RADIAL GRID

 LEGACY BECKE'S FUZZY CELL METHOD

 SELECTED ORIGINAL BECKE'S PARTITION FUNCTION

     LEBEDEV GRID-BASED DFT OPTIONS
     ------------------------------
     DFTTYP=BHHLYP  
     NRAD  =      96     NLEB  =     302
     NRAD0 =      24     NLEB0 =     110
     SWOFF =    5.00E-03 (PURE SCF -> DFT)
     SWITCH=    3.00E-04 (COARSE -> TIGHT GRID)
     THRESH=    0.00E+00 GTHRE=    1.00E+00

 GRIMME'S EMPIRICAL DISPERSION CORRECTION= F

     $CONTRL OPTIONS
     ---------------
 SCFTYP=RHF          RUNTYP=OPTIMIZE     EXETYP=RUN     
 MPLEVL=       0     CITYP =NONE         CCTYP =NONE         VBTYP =NONE    
 DFTTYP=BHHLYP       TDDFT =EXCITE  
 MULT  =       1     ICHARG=       0     NZVAR =       0     COORD =UNIQUE  
 PP    =NONE         RELWFN=NONE         LOCAL =NONE         NUMGRD=       F
 ISPHER=      -1     NOSYM =       0     MAXIT =      30     UNITS =ANGS    
 PLTORB=       F     MOLPLT=       F     AIMPAC=       F     FRIEND=        
 NPRINT=       7     IREST =       0     GEOM  =INPUT   
 NORMF =       0     NORMP =       0     ITOL  =      20     ICUT  =       9
 INTTYP=BEST         GRDTYP=BEST         QMTTOL= 1.0E-06

     $SYSTEM OPTIONS
     ---------------
  REPLICATED MEMORY=   128000000 WORDS (ON EVERY NODE).
 DISTRIBUTED MEMDDI=           0 MILLION WORDS IN AGGREGATE,
 MEMDDI DISTRIBUTED OVER   1 PROCESSORS IS           0 WORDS/PROCESSOR.
 TOTAL MEMORY REQUESTED ON EACH PROCESSOR=   128000000 WORDS.
 TIMLIM=      525600.00 MINUTES, OR     365.0 DAYS.
 PARALL= F  BALTYP=  DLB     KDIAG=    0  COREFL= F
 MXSEQ2=     300 MXSEQ3=     150  mem10=         0  mem22=         0

          ----------------
          PROPERTIES INPUT
          ----------------

     MOMENTS            FIELD           POTENTIAL          DENSITY
 IEMOM =       1   IEFLD =       0   IEPOT =       0   IEDEN =       0
 WHERE =COMASS     WHERE =NUCLEI     WHERE =NUCLEI     WHERE =NUCLEI  
 OUTPUT=BOTH       OUTPUT=BOTH       OUTPUT=BOTH       OUTPUT=BOTH    
 IEMINT=       0   IEFINT=       0                     IEDINT=       0
                                                       MORB  =       0
          EXTRAPOLATION IN EFFECT
          DIIS IN EFFECT
 ORBITAL PRINTING OPTION: NPREO=     1    38     2     1

     -------------------------------
     INTEGRAL TRANSFORMATION OPTIONS
     -------------------------------
     NWORD  =            0
     CUTOFF = 1.0E-09     MPTRAN =       0
     DIRTRF =       F     AOINTS =DUP     

          ----------------------
          INTEGRAL INPUT OPTIONS
          ----------------------
 NOPK  =       1 NORDER=       0 SCHWRZ=       T

          ----------------------
          TDDFT INPUT PARAMETERS
          ----------------------
 NSTATE=       3 IROOT =       1 MULT  =       1
 MAXVEC=      50 NTRIAL=       5 CNVTOL=  1.00E-07
 TDPRP =       F TRNSD =       F TAMMD =       F
 TPA   =       F ALPHA =       F BETA  =       F
 PFREQ =    0.00    0.00
   NRAD=      48   NLEB=     110

     ------------------------------------------
     THE POINT GROUP IS C1 , NAXIS= 1, ORDER= 1
     ------------------------------------------

     DIMENSIONS OF THE SYMMETRY SUBSPACES ARE
 A   =   38

 ..... DONE SETTING UP THE RUN .....
 STEP CPU TIME =     0.01 TOTAL CPU TIME =          0.0 (      0.0 MIN)
 TOTAL WALL CLOCK TIME=          0.0 SECONDS, CPU UTILIZATION IS    35.28%


          -----------------------------
          STATIONARY POINT LOCATION RUN
          -----------------------------

 OBTAINING INITIAL HESSIAN, HESS=GUESS   
 CARTESIAN COORDINATE OPTIMIZATION USING BADGER'S RULE FORCE CONSTANT GUESS

          PARAMETERS CONTROLLING GEOMETRY SEARCH ARE
          METHOD =QA                  UPHESS =BFGS    
          NNEG   =         0          NFRZ   =         0
          NSTEP  =       100          IFOLOW =         1
          HESS   =GUESS               RESTAR =         F
          IHREP  =         0          HSSEND =         F
          NPRT   =         0          NPUN   =         0
          OPTTOL = 1.000E-04          RMIN   = 1.500E-03
          RMAX   = 1.000E-01          RLIM   = 7.000E-02
          DXMAX  = 3.000E-01          PURIFY =         F
          MOVIE  =         F          TRUPD  =         T
          TRMAX  = 5.000E-01          TRMIN  = 5.000E-02
          ITBMAT =         5          STPT   =         F
          STSTEP = 1.000E-02          PROJCT=          T

 BEGINNING GEOMETRY SEARCH POINT NSERCH=   0 ...

 COORDINATES OF ALL ATOMS ARE (ANGS)
   ATOM   CHARGE       X              Y              Z
 ------------------------------------------------------------
 C           6.0   0.0000000000   0.0000000000   0.0000000000
 C           6.0  -1.3202988400   0.0000104800  -0.0002355100
 H           1.0  -1.8891619700  -0.9165789200  -0.0003026600
 H           1.0  -1.8891642300   0.9165875500  -0.0003271200
 H           1.0   0.5687618800   0.9166525100   0.0001046100
 H           1.0   0.5687722900  -0.9166765200   0.0000366300

          ********************
          1 ELECTRON INTEGRALS
          ********************
 ...... END OF ONE-ELECTRON INTEGRALS ......
 STEP CPU TIME =     0.00 TOTAL CPU TIME =          0.0 (      0.0 MIN)
 TOTAL WALL CLOCK TIME=          0.0 SECONDS, CPU UTILIZATION IS    36.52%

          -------------
          GUESS OPTIONS
          -------------
          GUESS =HUCKEL            NORB  =       0          NORDER=       0
          MIX   =       F          PRTMO =       F          PUNMO =       F
          TOLZ  = 1.0E-08          TOLE  = 1.0E-05
          SYMDEN=       F          PURIFY=       F

 INITIAL GUESS ORBITALS GENERATED BY HUCKEL   ROUTINE.
 HUCKEL GUESS REQUIRES     15726 WORDS.

 SYMMETRIES FOR INITIAL GUESS ORBITALS FOLLOW.   BOTH SET(S).
     8 ORBITALS ARE OCCUPIED (    2 CORE ORBITALS).
     3=A        4=A        5=A        6=A        7=A        8=A        9=A   
    10=A       11=A       12=A       13=A       14=A       15=A       16=A   
    17=A       18=A   
 ...... END OF INITIAL ORBITAL SELECTION ......
 STEP CPU TIME =     0.00 TOTAL CPU TIME =          0.0 (      0.0 MIN)
 TOTAL WALL CLOCK TIME=          0.1 SECONDS, CPU UTILIZATION IS    36.64%

                    ----------------------
                    AO INTEGRAL TECHNOLOGY
                    ----------------------
     S,P,L SHELL ROTATED AXIS INTEGRALS, REPROGRAMMED BY
        KAZUYA ISHIMURA (IMS) AND JOSE SIERRA (SYNSTAR).
     S,P,D,L SHELL ROTATED AXIS INTEGRALS PROGRAMMED BY
        KAZUYA ISHIMURA (INSTITUTE FOR MOLECULAR SCIENCE).
     S,P,D,F,G SHELL TO TOTAL QUARTET ANGULAR MOMENTUM SUM 5,
        ERIC PROGRAM BY GRAHAM FLETCHER (ELORET AND NASA ADVANCED
        SUPERCOMPUTING DIVISION, AMES RESEARCH CENTER).
     S,P,D,F,G,L SHELL GENERAL RYS QUADRATURE PROGRAMMED BY
        MICHEL DUPUIS (PACIFIC NORTHWEST NATIONAL LABORATORY).

          --------------------
          2 ELECTRON INTEGRALS
          --------------------

 THE -PK- OPTION IS OFF, THE INTEGRALS ARE NOT IN SUPERMATRIX FORM.
 STORING   15000 INTEGRALS/RECORD ON DISK, USING 12 BYTES/INTEGRAL.
 TWO ELECTRON INTEGRAL EVALUATION REQUIRES   90532 WORDS OF MEMORY.
 SCHWARZ INEQUALITY OVERHEAD:       741 INTEGRALS, T=        0.00
 II,JST,KST,LST =  1  1  1  1 NREC =         1 INTLOC =    1
 II,JST,KST,LST =  2  1  1  1 NREC =         1 INTLOC =    2
 II,JST,KST,LST =  3  1  1  1 NREC =         1 INTLOC =   34
 II,JST,KST,LST =  4  1  1  1 NREC =         1 INTLOC =  214
 II,JST,KST,LST =  5  1  1  1 NREC =         1 INTLOC = 1189
 II,JST,KST,LST =  6  1  1  1 NREC =         1 INTLOC = 2756
 II,JST,KST,LST =  7  1  1  1 NREC =         1 INTLOC =12752
 II,JST,KST,LST =  8  1  1  1 NREC =         3 INTLOC =  174
 II,JST,KST,LST =  9  1  1  1 NREC =         5 INTLOC =14871
 II,JST,KST,LST = 10  1  1  1 NREC =         6 INTLOC =14637
 II,JST,KST,LST = 11  1  1  1 NREC =         8 INTLOC = 1000
 II,JST,KST,LST = 12  1  1  1 NREC =         9 INTLOC = 3746
 II,JST,KST,LST = 13  1  1  1 NREC =        10 INTLOC = 8301
 II,JST,KST,LST = 14  1  1  1 NREC =        11 INTLOC =14243
 II,JST,KST,LST = 15  1  1  1 NREC =        13 INTLOC = 7444
 II,JST,KST,LST = 16  1  1  1 NREC =        15 INTLOC = 2140
 SCHWARZ INEQUALITY TEST SKIPPED          18 INTEGRAL BLOCKS.
 TOTAL NUMBER OF NONZERO TWO-ELECTRON INTEGRALS =              239369
         16 INTEGRAL RECORDS WERE STORED ON DISK FILE  8.
  ...... END OF TWO-ELECTRON INTEGRALS .....
 STEP CPU TIME =     0.06 TOTAL CPU TIME =          0.1 (      0.0 MIN)
 TOTAL WALL CLOCK TIME=          0.1 SECONDS, CPU UTILIZATION IS    54.97%

          --------------------------
            R-BHHLYP SCF CALCULATION
          --------------------------

     NUCLEAR ENERGY =        33.6032259559
     MAXIT =   30     NPUNCH=    2
     EXTRAP=T  DAMP=F  SHIFT=F  RSTRCT=F  DIIS=T  DEM=F  SOSCF=F
         DENSITY MATRIX CONVERGENCE THRESHOLD=  1.00E-06
     COARSE -> FINE DFT GRID SWITCH THRESHOLD=  3.00E-04 (SWITCH IN $DFT)
                   HF -> DFT SWITCH THRESHOLD=  5.00E-03 (SWOFF IN $DFT)
     MEMORY REQUIRED FOR RHF ITERS=    266475 WORDS.

 DFT CODE IS SWITCHING FROM THE FINE GRID NRAD= 96,  NLEB=  302
                      TO THE COARSE GRID NRAD0= 24, NLEB0=  110

     EXCHANGE FUNCTIONAL   =B88&HFX   
     CORRELATION FUNCTIONAL=LYP88     
     DFT THRESHOLD         =.230E-07
     GRID CHANGE THRESHOLD =.300E-03
 FOR AN EULER-MACLAURIN QUADRATURE USING  96 RADIAL POINTS:
 SMALLEST GAUSSIAN PRIMITIVE EXPONENT=        0.1612777588 OF TYPE -S-
 ON ATOM NUMBER   3 HAS RADIAL NORMALIZATION=  1.000000
  LARGEST GAUSSIAN PRIMITIVE EXPONENT=     3047.5248800000 OF TYPE -S-
 ON ATOM NUMBER   1 HAS RADIAL NORMALIZATION=  1.000000
 DFT IS SWITCHED OFF, PERFORMING PURE SCF UNTIL SWOFF THRESHOLD IS REACHED.

 ITER EX DEM     TOTAL ENERGY        E CHANGE  DENSITY CHANGE    DIIS ERROR
          * * *   INITIATING DIIS PROCEDURE   * * *
   1  0  0      -77.8552697663   -77.8552697663   0.121142972   0.484750586
   2  1  0      -78.0218110634    -0.1665412971   0.057950637   0.104874391
   3  2  0      -78.0305292985    -0.0087182351   0.013616622   0.019555783
   4  3  0      -78.0315929695    -0.0010636710   0.005812971   0.008554483
   5  4  0      -78.0316793837    -0.0000864142   0.000406684   0.000502280
 CONVERGED TO SWOFF, SO DFT CALCULATION IS NOW SWITCHED ON.
          * * *   INITIATING DIIS PROCEDURE   * * *
   6  5  0      -78.5261149068    -0.4944355230   0.032485451   0.069415847
   7  6  0      -78.5293007574    -0.0031858506   0.013805962   0.014475089
   8  7  0      -78.5295777536    -0.0002769962   0.005020982   0.009594826
   9  8  0      -78.5297250327    -0.0001472791   0.000213690   0.000348501
 DFT CODE IS SWITCHING BACK TO THE FINE GRID
          * * *   INITIATING DIIS PROCEDURE   * * *
  10  9  0      -78.5299338296    -0.0002087969   0.000274716   0.000654402
  11 10  0      -78.5299343646    -0.0000005350   0.000118069   0.000136601
  12 11  0      -78.5299343826    -0.0000000181   0.000028091   0.000058569
  13 12  0      -78.5299343884    -0.0000000057   0.000008659   0.000012628
  14 13  0      -78.5299343886    -0.0000000002   0.000000904   0.000000917
  15 14  0      -78.5299343886    -0.0000000000   0.000000178   0.000000128

          -----------------
          DENSITY CONVERGED
          -----------------
     TIME TO FORM FOCK OPERATORS=       3.5 SECONDS (       0.2 SEC/ITER)
     TIME TO SOLVE SCF EQUATIONS=       0.0 SECONDS (       0.0 SEC/ITER)

 FINAL R-BHHLYP ENERGY IS      -78.5299343886 AFTER  15 ITERATIONS
 DFT EXCHANGE + CORRELATION ENERGY =        -6.3808352868
 TOTAL ELECTRON NUMBER             =        15.9999329323

          ------------
          EIGENVECTORS
          ------------

                      1          2          3          4          5
                  -10.5861   -10.5848    -0.8687    -0.6653    -0.5400
                     A          A          A          A          A   
    1  C  1  S    0.704426  -0.701100  -0.159913  -0.121828   0.000002
    2  C  1  S    0.028524  -0.029071   0.307062   0.242282  -0.000003
    3  C  1  X    0.000236   0.000272  -0.103847   0.171816   0.000018
    4  C  1  Y    0.000000  -0.000000   0.000004   0.000008   0.328967
    5  C  1  Z    0.000000   0.000000  -0.000020   0.000024   0.000008
    6  C  1  S   -0.005887   0.012265   0.229855   0.229307  -0.000009
    7  C  1  X   -0.000731  -0.001969  -0.005054   0.069500   0.000003
    8  C  1  Y   -0.000000   0.000000   0.000002   0.000001   0.123644
    9  C  1  Z   -0.000000  -0.000000  -0.000002   0.000010   0.000003
   10  C  1 XX   -0.004561   0.004148   0.011248  -0.004860  -0.000001
   11  C  1 YY   -0.004783   0.004435   0.001491   0.017430   0.000001
   12  C  1 ZZ   -0.004983   0.004800  -0.015709  -0.011560   0.000000
   13  C  1 XY    0.000000  -0.000000   0.000000   0.000001   0.008729
   14  C  1 XZ    0.000000  -0.000000   0.000005   0.000001   0.000001
   15  C  1 YZ    0.000000  -0.000000   0.000001   0.000001   0.000000
   16  C  2  S    0.700675   0.704850  -0.159916   0.121825  -0.000000
   17  C  2  S    0.028368   0.029223   0.307060  -0.242277  -0.000000
   18  C  2  X   -0.000237   0.000270   0.103839   0.171876  -0.000018
   19  C  2  Y    0.000000   0.000000   0.000000  -0.000002   0.328923
   20  C  2  Z   -0.000000   0.000000   0.000020   0.000025  -0.000001
   21  C  2  S   -0.005819  -0.012297   0.229899  -0.229301   0.000003
   22  C  2  X    0.000744  -0.001964   0.005060   0.069515  -0.000007
   23  C  2  Y    0.000000  -0.000000  -0.000001   0.000003   0.123647
   24  C  2  Z    0.000000  -0.000000   0.000001   0.000011   0.000000
   25  C  2 XX   -0.004538  -0.004172   0.011249   0.004857  -0.000000
   26  C  2 YY   -0.004760  -0.004460   0.001487  -0.017428   0.000001
   27  C  2 ZZ   -0.004958  -0.004827  -0.015712   0.011560  -0.000000
   28  C  2 XY   -0.000000  -0.000000  -0.000000   0.000000  -0.008728
   29  C  2 XZ    0.000000   0.000000   0.000005  -0.000001   0.000000
   30  C  2 YZ   -0.000000   0.000000  -0.000000   0.000000  -0.000001
   31  H  3  S   -0.000234  -0.000135   0.083779  -0.146586  -0.155885
   32  H  3  S    0.001564   0.001588   0.016480  -0.065471  -0.108664
   33  H  4  S   -0.000234  -0.000135   0.083780  -0.146590   0.155895
   34  H  4  S    0.001564   0.001588   0.016482  -0.065477   0.108668
   35  H  5  S   -0.000234   0.000134   0.083781   0.146575   0.155924
   36  H  5  S    0.001572  -0.001580   0.016489   0.065466   0.108699
   37  H  6  S   -0.000234   0.000134   0.083777   0.146566  -0.155916
   38  H  6  S    0.001572  -0.001580   0.016490   0.065464  -0.108691

                      6          7          8          9         10
                   -0.4887    -0.4161    -0.3156     0.0754     0.1707
                     A          A          A          A          A   
    1  C  1  S    0.013546  -0.000002  -0.000003   0.000004  -0.079907
    2  C  1  S   -0.030156   0.000002   0.000007  -0.000004   0.109340
    3  C  1  X    0.413117  -0.000006  -0.000064   0.000057   0.165803
    4  C  1  Y   -0.000017  -0.309320  -0.000024   0.000017  -0.000037
    5  C  1  Z    0.000067  -0.000025   0.392453  -0.388511   0.000018
    6  C  1  S    0.005462   0.000012   0.000007  -0.000044   1.439806
    7  C  1  X    0.145415   0.000002  -0.000046   0.000104   0.620048
    8  C  1  Y   -0.000002  -0.147541  -0.000016   0.000032  -0.000085
    9  C  1  Z    0.000023  -0.000013   0.290497  -0.680559   0.000057
   10  C  1 XX   -0.007709   0.000000   0.000006   0.000008   0.004349
   11  C  1 YY    0.022116   0.000000   0.000000   0.000000  -0.012771
   12  C  1 ZZ   -0.000234  -0.000000  -0.000007  -0.000007  -0.004109
   13  C  1 XY    0.000000  -0.033486  -0.000002  -0.000001   0.000003
   14  C  1 XZ   -0.000002  -0.000000  -0.019881  -0.025089   0.000001
   15  C  1 YZ    0.000001  -0.000004   0.000001  -0.000000   0.000000
   16  C  2  S    0.013569   0.000000   0.000003   0.000002  -0.079897
   17  C  2  S   -0.030196  -0.000001  -0.000006  -0.000002   0.109301
   18  C  2  X   -0.413098   0.000008  -0.000068  -0.000059  -0.165780
   19  C  2  Y   -0.000008   0.309370   0.000015   0.000008  -0.000033
   20  C  2  Z   -0.000070  -0.000018   0.392449   0.388513  -0.000019
   21  C  2  S    0.005359   0.000002  -0.000005  -0.000023   1.439751
   22  C  2  X   -0.145422   0.000003  -0.000048  -0.000105  -0.620084
   23  C  2  Y   -0.000010   0.147560   0.000009   0.000015  -0.000079
   24  C  2  Z   -0.000024  -0.000010   0.290497   0.680561  -0.000064
   25  C  2 XX   -0.007702  -0.000000  -0.000006   0.000008   0.004345
   26  C  2 YY    0.022111  -0.000000  -0.000000   0.000000  -0.012772
   27  C  2 ZZ   -0.000232  -0.000000   0.000006  -0.000008  -0.004113
   28  C  2 XY    0.000000  -0.033490  -0.000002   0.000002  -0.000004
   29  C  2 XZ   -0.000002  -0.000001   0.019879  -0.025091   0.000001
   30  C  2 YZ   -0.000000  -0.000005  -0.000000   0.000000  -0.000000
   31  H  3  S    0.124846  -0.194341  -0.000008   0.000010  -0.027508
   32  H  3  S    0.104082  -0.179961  -0.000010   0.000032  -1.010036
   33  H  4  S    0.124840   0.194334   0.000010  -0.000002  -0.027489
   34  H  4  S    0.104083   0.179950   0.000011  -0.000009  -1.009823
   35  H  5  S    0.124849  -0.194314  -0.000010   0.000000  -0.027521
   36  H  5  S    0.104084  -0.179928  -0.000010  -0.000002  -1.009864
   37  H  6  S    0.124865   0.194314   0.000008   0.000012  -0.027539
   38  H  6  S    0.104103   0.179926   0.000010   0.000041  -1.010083

                     11         12         13         14         15
                    0.1924     0.2107     0.2950     0.3881     0.5387
                     A          A          A          A          A   
    1  C  1  S   -0.000003   0.111345  -0.000002  -0.068109  -0.021087
    2  C  1  S    0.000005  -0.136381   0.000004   0.018495  -0.196162
    3  C  1  X   -0.000009  -0.111311  -0.000003  -0.164087   0.553043
    4  C  1  Y   -0.283857  -0.000023   0.293050   0.000001   0.000009
    5  C  1  Z   -0.000018  -0.000010   0.000013  -0.000023   0.000094
    6  C  1  S   -0.000018  -1.908081   0.000093   3.101489  -0.257288
    7  C  1  X   -0.000070  -0.115784   0.000011  -2.961368  -1.056453
    8  C  1  Y   -0.750395  -0.000067   1.778284  -0.000018  -0.000018
    9  C  1  Z   -0.000059   0.000008   0.000043  -0.000513  -0.000171
   10  C  1 XX   -0.000001   0.006834   0.000000  -0.010445  -0.074596
   11  C  1 YY    0.000001   0.000615   0.000001   0.025020   0.035254
   12  C  1 ZZ    0.000000   0.010723  -0.000001  -0.011420   0.001361
   13  C  1 XY    0.025088   0.000003   0.018552   0.000000   0.000002
   14  C  1 XZ   -0.000000  -0.000001  -0.000000  -0.000001  -0.000016
   15  C  1 YZ    0.000005   0.000000   0.000004   0.000002   0.000001
   16  C  2  S    0.000022  -0.111351   0.000002   0.068105  -0.021096
   17  C  2  S   -0.000031   0.136368  -0.000001  -0.018450  -0.196215
   18  C  2  X    0.000028  -0.111350   0.000005  -0.164099  -0.552978
   19  C  2  Y   -0.283852  -0.000040  -0.293052   0.000003  -0.000004
   20  C  2  Z    0.000011  -0.000015   0.000006  -0.000022  -0.000095
   21  C  2  S   -0.000380   1.908403  -0.000066  -3.101233  -0.256849
   22  C  2  X    0.000096  -0.115974  -0.000014  -2.961509   1.056949
   23  C  2  Y   -0.750310  -0.000111  -1.778203   0.000056  -0.000004
   24  C  2  Z    0.000042  -0.000009   0.000001  -0.000524   0.000174
   25  C  2 XX    0.000000  -0.006839   0.000001   0.010444  -0.074606
   26  C  2 YY    0.000002  -0.000613  -0.000001  -0.025006   0.035249
   27  C  2 ZZ    0.000001  -0.010729   0.000000   0.011409   0.001360
   28  C  2 XY   -0.025085  -0.000002   0.018541  -0.000001   0.000000
   29  C  2 XZ   -0.000001   0.000001   0.000001   0.000001  -0.000016
   30  C  2 YZ   -0.000005   0.000001   0.000004   0.000001  -0.000000
   31  H  3  S   -0.061347  -0.035063   0.029091  -0.084080   0.081922
   32  H  3  S   -1.047637  -1.039136  -1.564774  -0.579749   0.098900
   33  H  4  S    0.061360  -0.035051  -0.029093  -0.084070   0.081923
   34  H  4  S    1.048109  -1.038871   1.564826  -0.579830   0.098930
   35  H  5  S    0.061342   0.035073   0.029121   0.084138   0.081970
   36  H  5  S    1.047972   1.038912  -1.564849   0.579565   0.098665
   37  H  6  S   -0.061351   0.035063  -0.029113   0.084134   0.081950
   38  H  6  S   -1.047902   1.038690   1.564760   0.579511   0.098680

                     16         17         18         19         20
                    0.6231     0.6350     0.7224     0.7240     0.7956
                     A          A          A          A          A   
    1  C  1  S   -0.000001  -0.000001  -0.039544  -0.000012   0.093683
    2  C  1  S    0.000010  -0.000027  -0.748347  -0.000199   0.016636
    3  C  1  X   -0.000119   0.000013   0.027787  -0.000127   0.615092
    4  C  1  Y   -0.000030  -0.402843   0.000009  -0.000022   0.000017
    5  C  1  Z    0.730955   0.000001  -0.000220   0.799861   0.000108
    6  C  1  S   -0.000025   0.000116   1.454611   0.000400  -0.796377
    7  C  1  X    0.000146  -0.000032   0.350705   0.000295  -0.544238
    8  C  1  Y    0.000025   0.782984   0.000025   0.000022  -0.000094
    9  C  1  Z   -0.646163   0.000033   0.000335  -1.120719  -0.000079
   10  C  1 XX    0.000022  -0.000001  -0.083148  -0.000030   0.173813
   11  C  1 YY   -0.000001   0.000001  -0.150558  -0.000042   0.045293
   12  C  1 ZZ   -0.000018   0.000000   0.052329   0.000024  -0.091384
   13  C  1 XY   -0.000000  -0.092802   0.000005   0.000003  -0.000002
   14  C  1 XZ   -0.061313  -0.000001  -0.000034   0.026445   0.000050
   15  C  1 YZ    0.000001  -0.000012  -0.000007   0.000000   0.000008
   16  C  2  S    0.000000  -0.000002  -0.039530  -0.000012  -0.093686
   17  C  2  S   -0.000005  -0.000026  -0.748413  -0.000205  -0.016620
   18  C  2  X   -0.000122  -0.000006  -0.027788   0.000129   0.615150
   19  C  2  Y    0.000012  -0.402948   0.000014  -0.000003   0.000002
   20  C  2  Z    0.730941  -0.000012   0.000222  -0.799875   0.000108
   21  C  2  S    0.000022   0.000010   1.454009   0.000411   0.796656
   22  C  2  X    0.000148  -0.000045  -0.351605  -0.000294  -0.544536
   23  C  2  Y   -0.000009   0.783231  -0.000039  -0.000006   0.000027
   24  C  2  Z   -0.646143  -0.000014  -0.000343   1.120730  -0.000090
   25  C  2 XX   -0.000021  -0.000005  -0.083156  -0.000031  -0.173811
   26  C  2 YY    0.000001  -0.000004  -0.150551  -0.000042  -0.045291
   27  C  2 ZZ    0.000018   0.000002   0.052323   0.000024   0.091383
   28  C  2 XY   -0.000002   0.092811  -0.000003  -0.000004   0.000001
   29  C  2 XZ    0.061313   0.000001  -0.000036   0.026444  -0.000050
   30  C  2 YZ   -0.000000   0.000014   0.000001  -0.000000   0.000004
   31  H  3  S    0.000004   0.385443  -0.406299  -0.000123  -0.372461
   32  H  3  S    0.000027   0.078705  -0.215214  -0.000059  -0.108260
   33  H  4  S    0.000006  -0.385475  -0.406274  -0.000107  -0.372454
   34  H  4  S    0.000004  -0.078732  -0.215203  -0.000069  -0.108286
   35  H  5  S   -0.000006  -0.385390  -0.406298  -0.000108   0.372435
   36  H  5  S   -0.000006  -0.078792  -0.214948  -0.000070   0.108191
   37  H  6  S   -0.000004   0.385388  -0.406333  -0.000124   0.372438
   38  H  6  S   -0.000028   0.078746  -0.214864  -0.000060   0.108064

                     21         22         23         24         25
                    0.9381     0.9766     1.0361     1.0374     1.1889
                     A          A          A          A          A   
    1  C  1  S   -0.000000  -0.000003   0.022295   0.016201  -0.030758
    2  C  1  S    0.000090   0.000102  -0.455538  -0.973598  -1.515909
    3  C  1  X    0.000038   0.000094  -0.617823  -0.342561   0.261945
    4  C  1  Y   -0.673212  -0.906754  -0.000127  -0.000094  -0.000012
    5  C  1  Z   -0.000030  -0.000032  -0.000093  -0.000044   0.000053
    6  C  1  S   -0.000172  -0.000150   0.439464   1.832935   5.696968
    7  C  1  X   -0.000039  -0.000168   1.333252   0.485024  -1.979329
    8  C  1  Y    1.129929   2.837039   0.000406   0.000255   0.000106
    9  C  1  Z    0.000058   0.000078   0.000208   0.000057  -0.000372
   10  C  1 XX    0.000015   0.000020  -0.127161  -0.098788   0.040446
   11  C  1 YY   -0.000004  -0.000009   0.111534   0.051548  -0.191006
   12  C  1 ZZ    0.000006   0.000012  -0.088546  -0.095990  -0.045880
   13  C  1 XY    0.176894   0.003681   0.000006   0.000015  -0.000001
   14  C  1 XZ    0.000003   0.000001  -0.000015  -0.000003   0.000022
   15  C  1 YZ    0.000028   0.000008   0.000007   0.000007  -0.000011
   16  C  2  S   -0.000002   0.000000  -0.021744   0.016929   0.030756
   17  C  2  S    0.000045   0.000000   0.422621  -0.988664   1.515650
   18  C  2  X   -0.000002   0.000056  -0.606028   0.363042   0.261994
   19  C  2  Y   -0.673075   0.906781   0.000096   0.000001  -0.000007
   20  C  2  Z    0.000014  -0.000011  -0.000098   0.000052   0.000050
   21  C  2  S   -0.000051  -0.000056  -0.377756   1.848030  -5.696559
   22  C  2  X    0.000016  -0.000101   1.316321  -0.528901  -1.979317
   23  C  2  Y    1.129432  -2.836959  -0.000363  -0.000099  -0.000028
   24  C  2  Z   -0.000031   0.000010   0.000216  -0.000071  -0.000361
   25  C  2 XX    0.000000  -0.000013   0.123764  -0.102986  -0.040483
   26  C  2 YY   -0.000000   0.000010  -0.109755   0.055212   0.191004
   27  C  2 ZZ    0.000004  -0.000003   0.085305  -0.098922   0.045873
   28  C  2 XY   -0.176910   0.003724  -0.000009  -0.000017  -0.000002
   29  C  2 XZ   -0.000002  -0.000001   0.000015  -0.000001  -0.000023
   30  C  2 YZ   -0.000028   0.000007   0.000002  -0.000003  -0.000007
   31  H  3  S   -0.389171   0.209039  -0.474226   0.447054   0.113280
   32  H  3  S    1.110880  -1.524586   1.002893  -0.930127   0.365154
   33  H  4  S    0.389126  -0.208979  -0.474232   0.447108   0.113309
   34  H  4  S   -1.110810   1.524481   1.003234  -0.930117   0.365168
   35  H  5  S    0.389129   0.208836   0.488913   0.430987  -0.113195
   36  H  5  S   -1.111004  -1.524271  -1.033859  -0.896128  -0.365411
   37  H  6  S   -0.389194  -0.208970   0.488867   0.430929  -0.113181
   38  H  6  S    1.111153   1.524572  -1.033408  -0.895791  -0.365312

                     26         27         28         29         30
                    1.3122     1.5639     1.6370     1.9415     2.0011
                     A          A          A          A          A   
    1  C  1  S   -0.000000  -0.000001  -0.000001  -0.000008   0.033779
    2  C  1  S    0.000049  -0.000008  -0.000021  -0.000046   0.166943
    3  C  1  X    0.000027   0.000035  -0.000000   0.000018  -0.086854
    4  C  1  Y   -0.099495   0.000014   0.000029  -0.000038   0.000012
    5  C  1  Z   -0.000020  -0.184481  -0.000003   0.000001  -0.000012
    6  C  1  S   -0.000141   0.000048   0.000079   0.000176  -0.634208
    7  C  1  X    0.000028  -0.000026  -0.000007   0.000069  -0.225245
    8  C  1  Y    2.813511  -0.000266  -0.000436   0.000017  -0.000041
    9  C  1  Z    0.000071   0.041746   0.000001   0.000000  -0.000011
   10  C  1 XX    0.000003   0.000192   0.000000   0.000017  -0.091597
   11  C  1 YY   -0.000001  -0.000018  -0.000033   0.000192  -0.540956
   12  C  1 ZZ    0.000011  -0.000176   0.000031  -0.000221   0.700284
   13  C  1 XY   -0.165203   0.000029  -0.000080   0.000029   0.000049
   14  C  1 XZ   -0.000046  -0.617914  -0.000002  -0.000007  -0.000170
   15  C  1 YZ    0.000044  -0.000004   0.679508  -0.738370  -0.000248
   16  C  2  S   -0.000001   0.000001   0.000001  -0.000008   0.033775
   17  C  2  S   -0.000029   0.000010   0.000021  -0.000046   0.166896
   18  C  2  X   -0.000005   0.000034  -0.000000  -0.000018   0.086912
   19  C  2  Y    0.099408  -0.000010  -0.000024  -0.000035   0.000015
   20  C  2  Z   -0.000018  -0.184478  -0.000002  -0.000000   0.000014
   21  C  2  S    0.000067  -0.000052  -0.000079   0.000177  -0.633704
   22  C  2  X    0.000078  -0.000024  -0.000008  -0.000069   0.225669
   23  C  2  Y   -2.813176   0.000265   0.000432  -0.000057   0.000068
   24  C  2  Z    0.000004   0.041749   0.000000  -0.000000   0.000014
   25  C  2 XX   -0.000003  -0.000191  -0.000000   0.000017  -0.091564
   26  C  2 YY   -0.000008   0.000011   0.000005   0.000162  -0.541022
   27  C  2 ZZ    0.000003   0.000182  -0.000004  -0.000191   0.700322
   28  C  2 XY   -0.165152   0.000015  -0.000090  -0.000041  -0.000048
   29  C  2 XZ    0.000042   0.617920   0.000013   0.000004  -0.000177
   30  C  2 YZ    0.000033  -0.000013   0.679491   0.738385   0.000214
   31  H  3  S   -0.686184   0.000068   0.000091  -0.000159   0.368898
   32  H  3  S   -0.792283   0.000085   0.000165  -0.000040   0.119019
   33  H  4  S    0.686190  -0.000048  -0.000073  -0.000036   0.368808
   34  H  4  S    0.792328  -0.000086  -0.000139  -0.000035   0.118996
   35  H  5  S   -0.686299   0.000047   0.000070  -0.000049   0.368797
   36  H  5  S   -0.792394   0.000088   0.000144  -0.000061   0.118979
   37  H  6  S    0.686282  -0.000069  -0.000089  -0.000145   0.368840
   38  H  6  S    0.792422  -0.000083  -0.000170  -0.000013   0.118918

                     31         32         33         34         35
                    2.1191     2.2102     2.4191     2.5139     2.8458
                     A          A          A          A          A   
    1  C  1  S   -0.000004  -0.031168   0.044382   0.000002  -0.063567
    2  C  1  S    0.000001  -0.363380   0.279089  -0.000005   0.353195
    3  C  1  X    0.000015   0.277118  -0.106048   0.000023  -0.831740
    4  C  1  Y    0.269329  -0.000015  -0.000019   0.000010   0.000017
    5  C  1  Z    0.000008   0.000052  -0.000011  -0.133345  -0.000149
    6  C  1  S    0.000065   0.236696  -1.426050  -0.000024   2.116915
    7  C  1  X   -0.000015  -0.446101   0.282687   0.000048  -1.227156
    8  C  1  Y    0.205126  -0.000006  -0.000017   0.000004  -0.000074
    9  C  1  Z    0.000025  -0.000072   0.000066  -0.275250  -0.000217
   10  C  1 XX    0.000036   0.616270   0.039859  -0.000275   1.132249
   11  C  1 YY   -0.000000  -0.556152  -0.680856  -0.000024  -0.550390
   12  C  1 ZZ   -0.000046  -0.321234   0.707248   0.000302  -0.570158
   13  C  1 XY    0.691326  -0.000020  -0.000004   0.000003  -0.000166
   14  C  1 XZ   -0.000006   0.000184  -0.000137   0.914363   0.000352
   15  C  1 YZ    0.000005  -0.000020  -0.000042  -0.000008   0.000000
   16  C  2  S   -0.000004  -0.031162  -0.044389  -0.000000   0.063570
   17  C  2  S   -0.000019  -0.363271  -0.279166  -0.000012  -0.353246
   18  C  2  X   -0.000025  -0.277070  -0.106114  -0.000026  -0.831736
   19  C  2  Y    0.269380  -0.000001  -0.000001   0.000006  -0.000009
   20  C  2  Z   -0.000002  -0.000051  -0.000016   0.133347  -0.000149
   21  C  2  S    0.000041   0.236466   1.426184   0.000025  -2.116865
   22  C  2  X   -0.000033   0.446256   0.282709  -0.000035  -1.227159
   23  C  2  Y    0.204677  -0.000004  -0.000017  -0.000002   0.000095
   24  C  2  Z   -0.000020   0.000072   0.000050   0.275250  -0.000217
   25  C  2 XX    0.000006   0.616314  -0.039667  -0.000274  -1.132220
   26  C  2 YY    0.000057  -0.556370   0.680625  -0.000003   0.550359
   27  C  2 ZZ   -0.000078  -0.321050  -0.707283   0.000278   0.570184
   28  C  2 XY   -0.691211   0.000015   0.000051  -0.000025  -0.000127
   29  C  2 XZ   -0.000023   0.000182   0.000108   0.914358  -0.000350
   30  C  2 YZ   -0.000017   0.000013  -0.000003  -0.000006  -0.000000
   31  H  3  S    0.510714   0.152536  -0.438248   0.000023   0.001393
   32  H  3  S   -0.089056  -0.052253  -0.016152  -0.000013  -0.068391
   33  H  4  S   -0.510802   0.152550  -0.438194  -0.000011   0.001266
   34  H  4  S    0.089033  -0.052248  -0.016161   0.000005  -0.068417
   35  H  5  S   -0.510862   0.152493   0.438325   0.000006  -0.001198
   36  H  5  S    0.088856  -0.052376   0.016085   0.000002   0.068359
   37  H  6  S    0.510812   0.152457   0.438292   0.000040  -0.001350
   38  H  6  S   -0.088867  -0.052366   0.016072  -0.000016   0.068352

                     36         37         38
                    2.8477     4.2537     4.3974
                     A          A          A   
    1  C  1  S   -0.000012  -0.328431   0.340771
    2  C  1  S    0.000057   2.238823  -2.008466
    3  C  1  X   -0.000115  -0.112733  -0.374758
    4  C  1  Y   -0.082336  -0.000004   0.000007
    5  C  1  Z    0.000003  -0.000018  -0.000070
    6  C  1  S    0.000360   0.942815  -1.938174
    7  C  1  X   -0.000187   0.129318   0.193928
    8  C  1  Y    0.559133   0.000005  -0.000005
    9  C  1  Z    0.000015   0.000012   0.000045
   10  C  1 XX    0.000173  -1.252965   1.715031
   11  C  1 YY   -0.000067  -1.301973   1.282619
   12  C  1 ZZ   -0.000110  -1.276509   1.249335
   13  C  1 XY    0.982367  -0.000004   0.000002
   14  C  1 XZ    0.000022   0.000008   0.000095
   15  C  1 YZ    0.000149  -0.000002   0.000000
   16  C  2  S    0.000013  -0.328431  -0.340769
   17  C  2  S   -0.000052   2.238825   2.008467
   18  C  2  X   -0.000116   0.112727  -0.374738
   19  C  2  Y    0.082245  -0.000002   0.000003
   20  C  2  Z    0.000005   0.000018  -0.000069
   21  C  2  S   -0.000373   0.942730   1.938219
   22  C  2  X   -0.000182  -0.129395   0.193862
   23  C  2  Y   -0.559057  -0.000001  -0.000008
   24  C  2  Z    0.000001  -0.000014   0.000041
   25  C  2 XX   -0.000157  -1.253000  -1.715040
   26  C  2 YY    0.000059  -1.301966  -1.282617
   27  C  2 ZZ    0.000111  -1.276501  -1.249325
   28  C  2 XY    0.982503   0.000003   0.000009
   29  C  2 XZ    0.000001   0.000008  -0.000096
   30  C  2 YZ    0.000159   0.000002  -0.000001
   31  H  3  S   -0.472356   0.131910   0.108418
   32  H  3  S   -0.039985  -0.306938  -0.349100
   33  H  4  S    0.472397   0.131917   0.108428
   34  H  4  S    0.039978  -0.306941  -0.349102
   35  H  5  S   -0.472270   0.131910  -0.108420
   36  H  5  S   -0.040083  -0.306943   0.349081
   37  H  6  S    0.472224   0.131899  -0.108406
   38  H  6  S    0.040097  -0.306926   0.349063
 ...... END OF RHF CALCULATION ......
 STEP CPU TIME =     3.56 TOTAL CPU TIME =          3.6 (      0.1 MIN)
 TOTAL WALL CLOCK TIME=          3.8 SECONDS, CPU UTILIZATION IS    95.92%

     ---------------------------------------------------------------------
     PROPERTIES FOR THE BHHLYP   DFT FUNCTIONAL (RHF  TYPE) DENSITY MATRIX
     ---------------------------------------------------------------------

          -----------------
          ENERGY COMPONENTS
          -----------------

         WAVEFUNCTION NORMALIZATION =       1.0000000000

                ONE ELECTRON ENERGY =    -170.7449334488
                TWO ELECTRON ENERGY =      58.6117731043
           NUCLEAR REPULSION ENERGY =      33.6032259559
                                      ------------------
                       TOTAL ENERGY =     -78.5299343886

 ELECTRON-ELECTRON POTENTIAL ENERGY =      58.6117731043
  NUCLEUS-ELECTRON POTENTIAL ENERGY =    -248.6688435770
   NUCLEUS-NUCLEUS POTENTIAL ENERGY =      33.6032259559
                                      ------------------
             TOTAL POTENTIAL ENERGY =    -156.4538445168
               TOTAL KINETIC ENERGY =      77.9239101282
                 VIRIAL RATIO (V/T) =       2.0077771285

          ---------------------------------------
          MULLIKEN AND LOWDIN POPULATION ANALYSES
          ---------------------------------------

     ATOMIC MULLIKEN POPULATION IN EACH MOLECULAR ORBITAL

                      1          2          3          4          5

                  2.000000   2.000000   2.000000   2.000000   2.000000

    1             1.004831   0.994310   0.877332   0.645325   0.608794
    2             0.994175   1.004967   0.877407   0.645423   0.608682
    3             0.000247   0.000182   0.061310   0.177329   0.195580
    4             0.000247   0.000182   0.061313   0.177341   0.195602
    5             0.000250   0.000179   0.061321   0.177300   0.195680
    6             0.000250   0.000179   0.061317   0.177282   0.195662

                      6          7          8

                  2.000000   2.000000   2.000000

    1             0.736147   0.452009   1.000005
    2             0.736044   0.452158   0.999995
    3             0.131941   0.274007   0.000000
    4             0.131930   0.273981   0.000000
    5             0.131950   0.273919   0.000000
    6             0.131988   0.273927   0.000000

               ----- POPULATIONS IN EACH AO -----
                             MULLIKEN      LOWDIN
              1  C  1  S      1.99366     1.98058
              2  C  1  S      0.69227     0.36472
              3  C  1  X      0.77184     0.68378
              4  C  1  Y      0.73045     0.64505
              5  C  1  Z      0.53648     0.49611
              6  C  1  S      0.56915     0.33301
              7  C  1  X      0.22500     0.37044
              8  C  1  Y      0.31321     0.45782
              9  C  1  Z      0.45753     0.49371
             10  C  1 XX      0.01152     0.18242
             11  C  1 YY      0.01893     0.16924
             12  C  1 ZZ     -0.02443     0.10274
             13  C  1 XY      0.01715     0.03483
             14  C  1 XZ      0.00600     0.01019
             15  C  1 YZ      0.00000     0.00000
             16  C  2  S      1.99366     1.98058
             17  C  2  S      0.69227     0.36472
             18  C  2  X      0.77186     0.68379
             19  C  2  Y      0.73045     0.64506
             20  C  2  Z      0.53647     0.49610
             21  C  2  S      0.56920     0.33300
             22  C  2  X      0.22502     0.37044
             23  C  2  Y      0.31324     0.45783
             24  C  2  Z      0.45753     0.49371
             25  C  2 XX      0.01152     0.18243
             26  C  2 YY      0.01891     0.16922
             27  C  2 ZZ     -0.02443     0.10274
             28  C  2 XY      0.01715     0.03484
             29  C  2 XZ      0.00600     0.01019
             30  C  2 YZ      0.00000     0.00000
             31  H  3  S      0.52963     0.48459
             32  H  3  S      0.31097     0.35309
             33  H  4  S      0.52963     0.48459
             34  H  4  S      0.31097     0.35309
             35  H  5  S      0.52963     0.48458
             36  H  5  S      0.31097     0.35309
             37  H  6  S      0.52962     0.48458
             38  H  6  S      0.31099     0.35310

          ----- MULLIKEN ATOMIC OVERLAP POPULATIONS -----
          (OFF-DIAGONAL ELEMENTS NEED TO BE MULTIPLIED BY 2)

             1           2           3           4           5

    1    4.9443140
    2    0.6755441   4.9444343
    3   -0.0374210   0.3868593   0.5313189
    4   -0.0374200   0.3868647  -0.0376497   0.5313130
    5    0.3868673  -0.0374268   0.0043991  -0.0069105   0.5313056
    6    0.3868693  -0.0374247  -0.0069106   0.0043988  -0.0376355

             6

    6    0.5313066

          TOTAL MULLIKEN AND LOWDIN ATOMIC POPULATIONS
       ATOM         MULL.POP.    CHARGE          LOW.POP.     CHARGE
    1 C             6.318754   -0.318754         6.324636   -0.324636
    2 C             6.318851   -0.318851         6.324653   -0.324653
    3 H             0.840596    0.159404         0.837683    0.162317
    4 H             0.840596    0.159404         0.837680    0.162320
    5 H             0.840599    0.159401         0.837673    0.162327
    6 H             0.840604    0.159396         0.837676    0.162324

          -------------------------------
          BOND ORDER AND VALENCE ANALYSIS     BOND ORDER THRESHOLD=0.050
          -------------------------------

                   BOND                       BOND                       BOND
  ATOM PAIR DIST  ORDER      ATOM PAIR DIST  ORDER      ATOM PAIR DIST  ORDER
    1   2  1.320  2.021        1   5  1.079  0.948        1   6  1.079  0.948
    2   3  1.079  0.948        2   4  1.079  0.948

                       TOTAL       BONDED        FREE
      ATOM            VALENCE     VALENCE     VALENCE
    1 C                 3.895       3.895      -0.000
    2 C                 3.895       3.895       0.000
    3 H                 0.936       0.936       0.000
    4 H                 0.936       0.936       0.000
    5 H                 0.936       0.936      -0.000
    6 H                 0.936       0.936      -0.000

          ---------------------
          ELECTROSTATIC MOMENTS
          ---------------------

 POINT   1           X           Y           Z (BOHR)    CHARGE
                -1.247515    0.000007   -0.000224       -0.00 (A.U.)
         DX          DY          DZ         /D/  (DEBYE)
    -0.000039    0.000013   -0.000012    0.000043
 ...... END OF PROPERTY EVALUATION ......
 STEP CPU TIME =     0.00 TOTAL CPU TIME =          3.6 (      0.1 MIN)
 TOTAL WALL CLOCK TIME=          3.8 SECONDS, CPU UTILIZATION IS    95.92%

 -----------------------------------------------------------------------
                    TDDFT CALCULATION FOR SCFTYP=RHF 
                          CODED BY MAHITO CHIBA
 NATIONAL INSTITUTE OF ADVANCED INDUSTRIAL SCIENCE AND TECHNOLOGY, JAPAN
 -----------------------------------------------------------------------
  
 -TDDFT RUNTIME PARAMETERS-
    TRIPLET  = F
    NONEQ    = T
    NSTATE   =                    3
    IROOT    =                    1
    NTRIAL   =                    5
    MAXVEC   =                   50
    ILENG    =                  200
    MAXGRD   =                28997
    NRAD     =                   48
    NLEB     =                  110
 GAS PHASE COMPUTATION
  
 FOR AN EULER-MACLAURIN QUADRATURE USING  48 RADIAL POINTS:
 SMALLEST GAUSSIAN PRIMITIVE EXPONENT=        0.1612777588 OF TYPE -S-
 ON ATOM NUMBER   3 HAS RADIAL NORMALIZATION=  1.000000
  LARGEST GAUSSIAN PRIMITIVE EXPONENT=     3047.5248800000 OF TYPE -S-
 ON ATOM NUMBER   1 HAS RADIAL NORMALIZATION=  1.000000
  
 MEM1  =      277875 MEM2  =        5156 MEMGRID=      306734
 MEMPCM=           0 MEMEFP=           0
 TOTAL MEMORY REQUIRED FOR TD-DFT ITERATIONS IS      589766 WORDS.

 INITIAL VECTORS / MXVEC                     5 /                  150
 ITERATION #                     1
    CURRENT VECTORS    1 TO   5 (   5 VECTORS)
    STATE NUMBER   1  ENERGY =    9.046980 EV
    STATE NUMBER   2  ENERGY =    9.751414 EV
    STATE NUMBER   3  ENERGY =    9.784830 EV
    MAX ERROR =  1.645E-01 / 1.000E-07
 ITERATION #                     2
    CURRENT VECTORS    6 TO  11 (   6 VECTORS)
    STATE NUMBER   1  ENERGY =    8.419974 EV
    STATE NUMBER   2  ENERGY =    8.968302 EV
    STATE NUMBER   3  ENERGY =    9.690165 EV
    MAX ERROR =  2.628E-03 / 1.000E-07
 ITERATION #                     3
    CURRENT VECTORS   12 TO  17 (   6 VECTORS)
    STATE NUMBER   1  ENERGY =    8.380713 EV
    STATE NUMBER   2  ENERGY =    8.967746 EV
    STATE NUMBER   3  ENERGY =    9.688053 EV
    MAX ERROR =  1.199E-04 / 1.000E-07
 ITERATION #                     4
    CURRENT VECTORS   18 TO  21 (   4 VECTORS)
    STATE NUMBER   1  ENERGY =    8.378852 EV
    STATE NUMBER   2  ENERGY =    8.967746 EV
    STATE NUMBER   3  ENERGY =    9.688024 EV
    MAX ERROR =  7.429E-06 / 1.000E-07
 ITERATION #                     5
    CURRENT VECTORS   22 TO  25 (   4 VECTORS)
    STATE NUMBER   1  ENERGY =    8.378766 EV
    STATE NUMBER   2  ENERGY =    8.967746 EV
    STATE NUMBER   3  ENERGY =    9.688023 EV
    MAX ERROR =  5.538E-07 / 1.000E-07
 ITERATION #                     6
    CURRENT VECTORS   26 TO  27 (   2 VECTORS)
    STATE NUMBER   1  ENERGY =    8.378763 EV
    STATE NUMBER   2  ENERGY =    8.967746 EV
    STATE NUMBER   3  ENERGY =    9.688023 EV
    MAX ERROR =  8.616E-08 / 1.000E-07
  
   ---------------------------------  
     R-TDDFT CALCULATION CONVERGED
   ---------------------------------  
 NUMBER OF USED VECTORS / MAX =  27 / 150
 NUMBER OF ITERATIONS   / MAX =   6 / 100
 NUMBER OF SINGLE EXCITATIONS =   240
 NUMBER OF ATOMIC ORBITALS    =  38
 NUMBER OF ELECTRONS          =          16.0012143

          -------------------
          SINGLET EXCITATIONS
          -------------------

 STATE #   1  ENERGY =    8.378763 EV
 OSCILLATOR STRENGTH =    0.393583
 LAMBDA DIAGNOSTIC   =    0.882 (RYDBERG/CHARGE TRANSFER CHARACTER)
 SYMMETRY OF STATE   =    A   
                 EXCITATION  DE-EXCITATION
     OCC     VIR  AMPLITUDE      AMPLITUDE
      I       A     X(I->A)        Y(A->I)
     ---     ---   --------       --------
      8       9   -0.994222       0.121785
      4      10   -0.077281      -0.026890
      3      12    0.038020       0.021409
      5      13    0.071260       0.027055
      6      14    0.097208       0.040738
      7      17   -0.067734      -0.032729
      6      20    0.064683       0.039318

 STATE #   2  ENERGY =    8.967746 EV
 OSCILLATOR STRENGTH =    0.000000
 LAMBDA DIAGNOSTIC   =    0.532 (RYDBERG/CHARGE TRANSFER CHARACTER)
 SYMMETRY OF STATE   =    A   
                 EXCITATION  DE-EXCITATION
     OCC     VIR  AMPLITUDE      AMPLITUDE
      I       A     X(I->A)        Y(A->I)
     ---     ---   --------       --------
      7       9    0.986216      -0.012884
      8      11   -0.157510      -0.005510
      7      19    0.048429      -0.001130

 STATE #   3  ENERGY =    9.688023 EV
 OSCILLATOR STRENGTH =    0.000405
 LAMBDA DIAGNOSTIC   =    0.413 (RYDBERG/CHARGE TRANSFER CHARACTER)
 SYMMETRY OF STATE   =    A   
                 EXCITATION  DE-EXCITATION
     OCC     VIR  AMPLITUDE      AMPLITUDE
      I       A     X(I->A)        Y(A->I)
     ---     ---   --------       --------
      4       9   -0.058096      -0.000258
      8      10   -0.997662       0.009270
      8      24    0.032364      -0.003515

                          SUMMARY OF TDDFT RESULTS

   STATE             ENERGY     EXCITATION  TRANSITION DIPOLE, A.U.  OSCILLATOR
   0 ->             HARTREE          EV         X       Y       Z     STRENGTH
   0  A          -78.5299343886    0.000
   1  A          -78.2220204978    8.379    -1.3847  0.0000 -0.0003    0.3936
   2  A          -78.2003757800    8.968     0.0003 -0.0000 -0.0000    0.0000
   3  A          -78.1739060826    9.688     0.0000 -0.0000  0.0413    0.0004
  
 TRANSITION        EXCITATION            TRANSITION DIPOLE, A.U.     OSCILLATOR
                       EV              X       Y       Z       DIP    STRENGTH

  1  ->  2           0.589         -0.0000  0.0000 -0.0000   0.0000    0.0000
  1  ->  3           1.309          0.0000 -0.0001  0.0000   0.0001    0.0000
  2  ->  3           0.720         -0.0000  0.2063  0.0000   0.2063    0.0008

 SELECTING EXCITED STATE IROOT=   1 AT E=      -78.2220204978
 AS THE STATE OF INTEREST.

 ..... DONE WITH TD-DFT EXCITATION ENERGIES .....
 STEP CPU TIME =     4.17 TOTAL CPU TIME =          7.8 (      0.1 MIN)
 TOTAL WALL CLOCK TIME=          8.0 SECONDS, CPU UTILIZATION IS    98.00%

 -----------------------------------------------------------------------
                   TD-DFT ENERGY GRADIENT CALCULATION
                   CODED BY MAHITO CHIBA (AIST, JAPAN)
 -----------------------------------------------------------------------

    -------------------------
       START Z-VECTOR LOOP
    -------------------------
 INITIAL ERROR =  1.620E-02, MUST CONVERGE TO 1.000E-10
 ITER# 1 ERROR =  6.742E-04
 ITER# 2 ERROR =  3.326E-05
 ITER# 3 ERROR =  1.837E-07
 ITER# 4 ERROR =  1.212E-09
 ITER# 5 ERROR =  1.295E-11
    -------------------------
        Z-VECTOR CONVERGED          
    -------------------------
 MAXIMUM MEMORY DURING TDDFT RESPONSES=    400830 WORDS.

 TDDFT NATURAL ORBITAL OCCUPATION NUMBERS FOR EXCITED STATE    1 ARE
  2.0000 2.0000 1.9977 1.9949 1.9940 1.9931 1.9801 1.0033 0.9972 0.0199
  0.0073 0.0064 0.0058 0.0023 0.0005 0.0001 0.0000 0.0000 0.0000 0.0000
  0.0000 0.0000 0.0000 0.0000 0.0000 0.0000 0.0000 0.0000-0.0000-0.0000
 -0.0000-0.0000-0.0000-0.0000-0.0001-0.0005-0.0010-0.0011
 THERE ARE    14.9632 ELECTRONS IN PRINCIPAL TDDFT NATURAL ORBITALS.
 THERE ARE     1.0368 ELECTRONS IN SECONDARY TDDFT NATURAL ORBITALS.

          ----------------------
          TDDFT NATURAL ORBITALS
          ----------------------

                      1          2          3          4          5

                    2.0000     2.0000     1.9977     1.9949     1.9940

    1  C  1  S   -0.702931   0.701430   0.150415  -0.000004   0.000017
    2  C  1  S   -0.029401   0.030681  -0.284589   0.000006  -0.000036
    3  C  1  X    0.000825  -0.002834  -0.028214  -0.000008  -0.000025
    4  C  1  Y   -0.000000  -0.000000  -0.000013  -0.336175  -0.313839
    5  C  1  Z    0.000000  -0.000001  -0.000001   0.000005  -0.000087
    6  C  1  S    0.011721  -0.004474  -0.208485   0.000009  -0.000028
    7  C  1  X   -0.001993  -0.001205  -0.035704   0.000002  -0.000004
    8  C  1  Y    0.000000  -0.000000  -0.000006  -0.139231  -0.147911
    9  C  1  Z   -0.000000  -0.000000  -0.000005   0.000021  -0.000057
   10  C  1 XX    0.003919  -0.004505  -0.008451   0.000001   0.000001
   11  C  1 YY    0.004498  -0.004907  -0.009633  -0.000001  -0.000002
   12  C  1 ZZ    0.004849  -0.005186   0.016124  -0.000001   0.000002
   13  C  1 XY   -0.000000   0.000000  -0.000000  -0.004644  -0.031650
   14  C  1 XZ   -0.000000   0.000000  -0.000004   0.000000   0.000003
   15  C  1 YZ   -0.000000   0.000000  -0.000001   0.000001  -0.000004
   16  C  2  S    0.702828   0.701533   0.150432  -0.000010  -0.000014
   17  C  2  S    0.029397   0.030684  -0.284616   0.000019   0.000028
   18  C  2  X    0.000825   0.002834   0.028246  -0.000003  -0.000018
   19  C  2  Y   -0.000000  -0.000000  -0.000019  -0.336459   0.313537
   20  C  2  Z    0.000000   0.000001   0.000003  -0.000012  -0.000080
   21  C  2  S   -0.011721  -0.004473  -0.208540   0.000014   0.000036
   22  C  2  X   -0.001993   0.001207   0.035708  -0.000001  -0.000004
   23  C  2  Y   -0.000000   0.000000  -0.000005  -0.139392   0.147787
   24  C  2  Z   -0.000000   0.000000   0.000005  -0.000024  -0.000054
   25  C  2 XX   -0.003918  -0.004506  -0.008454   0.000000  -0.000001
   26  C  2 YY   -0.004497  -0.004908  -0.009632   0.000001   0.000002
   27  C  2 ZZ   -0.004848  -0.005187   0.016127  -0.000001  -0.000001
   28  C  2 XY   -0.000000  -0.000000   0.000001   0.004677  -0.031648
   29  C  2 XZ    0.000000   0.000000  -0.000004   0.000000  -0.000004
   30  C  2 YZ   -0.000000  -0.000000   0.000000  -0.000000  -0.000004
   31  H  3  S   -0.000030  -0.000309  -0.118524   0.150141  -0.193114
   32  H  3  S    0.001539   0.001112  -0.054217   0.090579  -0.178375
   33  H  4  S   -0.000030  -0.000309  -0.118545  -0.150124   0.193144
   34  H  4  S    0.001539   0.001112  -0.054234  -0.090565   0.178382
   35  H  5  S    0.000030  -0.000308  -0.118519  -0.149960  -0.193284
   36  H  5  S   -0.001539   0.001112  -0.054225  -0.090415  -0.178458
   37  H  6  S    0.000030  -0.000308  -0.118508   0.149961   0.193244
   38  H  6  S   -0.001539   0.001112  -0.054226   0.090415   0.178438

                      6          7          8          9         10

                    1.9931     1.9801     1.0033     0.9972     0.0199

    1  C  1  S    0.124457  -0.066635  -0.000004  -0.000001  -0.097786
    2  C  1  S   -0.246053   0.131210   0.000007   0.000004   0.343194
    3  C  1  X   -0.166500  -0.431510  -0.000056  -0.000065  -0.699307
    4  C  1  Y    0.000046   0.000004  -0.000007  -0.000071   0.000007
    5  C  1  Z   -0.000026  -0.000069   0.390357   0.385077  -0.000118
    6  C  1  S   -0.274944   0.058375   0.000053  -0.000008   1.559824
    7  C  1  X   -0.041435  -0.129373  -0.000103  -0.000051  -1.225282
    8  C  1  Y    0.000023  -0.000002  -0.000052  -0.000028   0.000013
    9  C  1  Z   -0.000007  -0.000018   0.679524   0.291942  -0.000221
   10  C  1 XX    0.007955   0.014491  -0.000007   0.000013  -0.086012
   11  C  1 YY   -0.017947  -0.021031  -0.000000   0.000001   0.024865
   12  C  1 ZZ    0.010455  -0.006527   0.000006  -0.000013   0.011502
   13  C  1 XY    0.000004  -0.000001   0.000006  -0.000006   0.000000
   14  C  1 XZ    0.000000   0.000005   0.023491  -0.039369  -0.000023
   15  C  1 YZ   -0.000001  -0.000001   0.000000   0.000001  -0.000006
   16  C  2  S   -0.124420  -0.066667  -0.000002   0.000001   0.097812
   17  C  2  S    0.245988   0.131268   0.000003  -0.000004  -0.343304
   18  C  2  X   -0.166590   0.431476   0.000056  -0.000071  -0.699222
   19  C  2  Y   -0.000029  -0.000001   0.000003   0.000062  -0.000003
   20  C  2  Z   -0.000027   0.000074  -0.389670   0.385766  -0.000122
   21  C  2  S    0.274899   0.058511   0.000025   0.000004  -1.560010
   22  C  2  X   -0.041454   0.129381   0.000100  -0.000052  -1.225206
   23  C  2  Y   -0.000018   0.000006  -0.000035   0.000021   0.000002
   24  C  2  Z   -0.000008   0.000021  -0.679003   0.293159  -0.000215
   25  C  2 XX   -0.007955   0.014484  -0.000007  -0.000013   0.086015
   26  C  2 YY    0.017945  -0.021027  -0.000000  -0.000000  -0.024859
   27  C  2 ZZ   -0.010452  -0.006530   0.000007   0.000013  -0.011507
   28  C  2 XY    0.000004  -0.000000  -0.000006  -0.000007  -0.000001
   29  C  2 XZ   -0.000000   0.000005   0.023562   0.039325   0.000022
   30  C  2 YZ   -0.000001   0.000000  -0.000000  -0.000000  -0.000006
   31  H  3  S    0.144688  -0.091164  -0.000022  -0.000039   0.012828
   32  H  3  S    0.065904  -0.093416  -0.000062  -0.000050  -0.233646
   33  H  4  S    0.144650  -0.091165   0.000014   0.000041   0.012832
   34  H  4  S    0.065868  -0.093421   0.000031   0.000042  -0.233637
   35  H  5  S   -0.144638  -0.091188   0.000012  -0.000040  -0.012801
   36  H  5  S   -0.065853  -0.093427   0.000023  -0.000038   0.233790
   37  H  6  S   -0.144691  -0.091191  -0.000023   0.000040  -0.012803
   38  H  6  S   -0.065905  -0.093434  -0.000071   0.000054   0.233799

                     11         12         13         14         15

                    0.0073     0.0064     0.0058     0.0023     0.0005

    1  C  1  S   -0.077721   0.000001  -0.000007   0.093271   0.000000
    2  C  1  S    0.505674   0.000006   0.000054  -0.823179   0.000053
    3  C  1  X    0.225418   0.000019   0.000026  -0.035135  -0.000128
    4  C  1  Y   -0.000066   0.544556   0.424530  -0.000014  -0.000095
    5  C  1  Z    0.000023   0.000056   0.000103   0.000013   0.806376
    6  C  1  S    0.702112   0.000036   0.000000   0.689837  -0.000108
    7  C  1  X    0.416098   0.000012   0.000030  -0.990018   0.000177
    8  C  1  Y    0.000009   0.772858  -0.797687  -0.000040   0.000167
    9  C  1  Z    0.000034  -0.000010  -0.000205  -0.000159  -1.100739
   10  C  1 XX    0.024964   0.000001   0.000004  -0.061323   0.000003
   11  C  1 YY   -0.017878  -0.000001  -0.000006   0.025302  -0.000015
   12  C  1 ZZ   -0.017110  -0.000000  -0.000003   0.063311   0.000013
   13  C  1 XY   -0.000020   0.069950   0.217666   0.000002  -0.000032
   14  C  1 XZ    0.000006   0.000031   0.000013   0.000011  -0.035348
   15  C  1 YZ    0.000001   0.000021   0.000045   0.000014   0.000003
   16  C  2  S   -0.077680  -0.000010  -0.000004  -0.093278  -0.000000
   17  C  2  S    0.505486   0.000054   0.000041   0.823297   0.000034
   18  C  2  X   -0.225615  -0.000010  -0.000011  -0.035175   0.000140
   19  C  2  Y   -0.000003  -0.544053   0.425231   0.000028  -0.000075
   20  C  2  Z   -0.000026   0.000043  -0.000093   0.000004  -0.806388
   21  C  2  S    0.701705   0.000058   0.000025  -0.689734  -0.000039
   22  C  2  X   -0.416431  -0.000037   0.000007  -0.990150  -0.000164
   23  C  2  Y    0.000115  -0.773702  -0.797108   0.000019   0.000138
   24  C  2  Z   -0.000037  -0.000028   0.000186  -0.000170   1.100756
   25  C  2 XX    0.024984   0.000002   0.000000   0.061329   0.000005
   26  C  2 YY   -0.017888  -0.000002  -0.000000  -0.025308  -0.000011
   27  C  2 ZZ   -0.017110  -0.000002  -0.000001  -0.063323   0.000006
   28  C  2 XY    0.000012   0.069692  -0.217755  -0.000009   0.000032
   29  C  2 XZ    0.000014  -0.000029   0.000008  -0.000011  -0.035396
   30  C  2 YZ   -0.000001   0.000019  -0.000043   0.000015   0.000002
   31  H  3  S   -0.031201  -0.028326  -0.290429  -0.043880   0.000019
   32  H  3  S   -0.731675  -1.015662  -0.187828  -0.767163   0.000095
   33  H  4  S   -0.031247   0.028315   0.290430  -0.043872  -0.000014
   34  H  4  S   -0.731840   1.015522   0.187780  -0.767254  -0.000056
   35  H  5  S   -0.031264  -0.027986   0.290424   0.043890  -0.000017
   36  H  5  S   -0.731703  -1.015415   0.188849   0.767134  -0.000048
   37  H  6  S   -0.031224   0.027992  -0.290431   0.043877   0.000016
   38  H  6  S   -0.731786   1.015366  -0.188951   0.767027   0.000106

                     16         17         18         19         20

                    0.0001     0.0000     0.0000     0.0000     0.0000

    1  C  1  S    0.015957  -0.034132   0.000001  -0.000007   0.038195
    2  C  1  S    0.196337   1.613388  -0.000060   0.000183  -1.077082
    3  C  1  X    0.408567   0.193532  -0.000011   0.000025  -0.074116
    4  C  1  Y   -0.000012   0.000000   0.596646   0.222017   0.000007
    5  C  1  Z    0.000068   0.000018  -0.000329   0.000042   0.000024
    6  C  1  S    0.974453  -2.408763   0.000127  -0.000211   1.249356
    7  C  1  X   -2.049510  -0.804324  -0.000009  -0.000104   1.222762
    8  C  1  Y   -0.000000  -0.000121  -2.844564   0.328282   0.000083
    9  C  1  Z   -0.000330  -0.000085   0.000233   0.000114   0.000158
   10  C  1 XX    0.119534  -0.346665   0.000018  -0.000004  -0.324055
   11  C  1 YY    0.171834  -0.157550   0.000010  -0.000058   0.602556
   12  C  1 ZZ   -0.283538  -0.083062  -0.000007  -0.000005  -0.003351
   13  C  1 XY   -0.000005  -0.000006   0.551745   0.656264   0.000061
   14  C  1 XZ    0.000135  -0.000000   0.000022  -0.000261  -0.000089
   15  C  1 YZ   -0.000024  -0.000175   0.000213   0.000197   0.000253
   16  C  2  S   -0.015957  -0.034145   0.000001  -0.000001  -0.038218
   17  C  2  S   -0.195938   1.613342  -0.000003  -0.000059   1.077185
   18  C  2  X    0.408552  -0.193639   0.000002   0.000018  -0.074225
   19  C  2  Y   -0.000000  -0.000034  -0.596485   0.222109   0.000031
   20  C  2  Z    0.000068   0.000010  -0.000344  -0.000035   0.000010
   21  C  2  S   -0.974864  -2.407582  -0.000025   0.000158  -1.249592
   22  C  2  X   -2.049492   0.805543  -0.000057  -0.000119   1.223008
   23  C  2  Y    0.000021   0.000134   2.844344   0.328111  -0.000007
   24  C  2  Z   -0.000339   0.000072   0.000301  -0.000107   0.000180
   25  C  2 XX   -0.119591  -0.346625   0.000009  -0.000044   0.324075
   26  C  2 YY   -0.171824  -0.157435  -0.000008   0.000056  -0.602594
   27  C  2 ZZ    0.283510  -0.083274   0.000005  -0.000023   0.003238
   28  C  2 XY   -0.000005   0.000025   0.551544  -0.656670  -0.000089
   29  C  2 XZ   -0.000129  -0.000018  -0.000009  -0.000277   0.000066
   30  C  2 YZ   -0.000036   0.000172   0.000169  -0.000162   0.000236
   31  H  3  S   -0.227303  -0.032778  -0.315677   0.585369  -0.205012
   32  H  3  S   -0.469186   0.997947   1.719388  -0.077832   1.159063
   33  H  4  S   -0.227300  -0.032760   0.315665  -0.585366  -0.205172
   34  H  4  S   -0.469220   0.997810  -1.719415   0.077614   1.159166
   35  H  5  S    0.227384  -0.032716  -0.315807  -0.585088   0.204878
   36  H  5  S    0.469262   0.997669   1.719521   0.077534  -1.158929
   37  H  6  S    0.227386  -0.032754   0.315800   0.585002   0.204969
   38  H  6  S    0.469224   0.997548  -1.719572  -0.077248  -1.158837

                     21         22         23         24         25

                    0.0000     0.0000     0.0000     0.0000     0.0000

    1  C  1  S    0.025718   0.042068   0.008128   0.342403  -0.001150
    2  C  1  S   -0.475003  -0.830266   0.001495  -1.710842   0.005318
    3  C  1  X    0.476845  -0.620996   0.010607  -0.204305   0.000633
    4  C  1  Y   -0.000006  -0.000008  -0.000004   0.000244   0.009082
    5  C  1  Z    0.000141  -0.000482  -0.000149   0.009105   0.172507
    6  C  1  S   -0.655380   3.112531  -0.193704  -3.119777   0.012212
    7  C  1  X   -0.725617  -1.326894  -0.512790   0.457012  -0.001648
    8  C  1  Y   -0.000001   0.000070  -0.000093  -0.000721  -0.841927
    9  C  1  Z   -0.000201   0.000083   0.000066  -0.008051  -0.464207
   10  C  1 XX    0.795937   1.072863   0.040048   1.514009  -0.005509
   11  C  1 YY   -0.232556  -0.436293  -0.503768   1.354854  -0.004534
   12  C  1 ZZ   -0.000194   0.255314   0.157378   1.277249  -0.004026
   13  C  1 XY   -0.000005  -0.000015   0.000007  -0.000086  -0.108404
   14  C  1 XZ    0.000224   0.000222   0.000040  -0.001064   0.649215
   15  C  1 YZ   -0.000228  -0.000027   0.000177   0.000353  -0.414518
   16  C  2  S    0.025653  -0.042108   0.007915  -0.342274   0.001396
   17  C  2  S   -0.474339   0.830693   0.002596   1.710126  -0.006857
   18  C  2  X   -0.477446  -0.620504  -0.010706  -0.204266   0.000717
   19  C  2  Y   -0.000012   0.000004  -0.000006   0.000207  -0.177642
   20  C  2  Z   -0.000004  -0.000484  -0.000147   0.009107   0.288696
   21  C  2  S   -0.657621  -3.111525  -0.191215   3.119417  -0.012684
   22  C  2  X    0.724384  -1.327737   0.514218   0.456656  -0.001834
   23  C  2  Y    0.000062  -0.000001   0.000105  -0.000340   1.235165
   24  C  2  Z    0.000079   0.000101   0.000205  -0.008062   0.053162
   25  C  2 XX    0.794821  -1.073685   0.039317  -1.513660   0.005736
   26  C  2 YY   -0.232047   0.436535  -0.504537  -1.354066   0.005590
   27  C  2 ZZ   -0.000611  -0.255398   0.156511  -1.276751   0.005421
   28  C  2 XY   -0.000023  -0.000009  -0.000011   0.000068  -0.164948
   29  C  2 XZ    0.000244  -0.000192  -0.000010   0.001056   0.705260
   30  C  2 YZ    0.000221  -0.000009  -0.000196   0.000375  -0.197322
   31  H  3  S   -0.164263  -0.355823   0.701697   0.173210   0.189734
   32  H  3  S    0.456697   0.431514  -0.239712  -0.573291   0.553267
   33  H  4  S   -0.164281  -0.355826   0.701640   0.172861  -0.191088
   34  H  4  S    0.456628   0.431511  -0.239775  -0.572333  -0.548521
   35  H  5  S   -0.163793   0.355990   0.701688  -0.173544   0.298833
   36  H  5  S    0.456338  -0.432169  -0.239873   0.573691   0.132661
   37  H  6  S   -0.163814   0.355990   0.701669  -0.173327  -0.297237
   38  H  6  S    0.456370  -0.432092  -0.239961   0.572435  -0.137464

                     26         27         28         29         30

                    0.0000     0.0000     0.0000    -0.0000    -0.0000

    1  C  1  S   -0.000953   0.002292   0.000939   0.000344  -0.003106
    2  C  1  S    0.005252  -0.011691  -0.005197  -0.001436   0.015677
    3  C  1  X    0.000595  -0.001320  -0.000568  -0.000162   0.001680
    4  C  1  Y   -0.045113  -0.236315   0.282623   0.500152   0.003042
    5  C  1  Z    0.097277  -0.396862  -0.158770  -0.095434   0.544853
    6  C  1  S    0.007405  -0.021013  -0.007378  -0.004219   0.027951
    7  C  1  X   -0.001052   0.003047   0.001157   0.000530  -0.004059
    8  C  1  Y    1.534664   0.965305   0.252022  -2.854110   0.267571
    9  C  1  Z   -0.313016   0.308357   0.131492   0.053390  -0.328043
   10  C  1 XX   -0.004422   0.010528   0.004225   0.001623  -0.013545
   11  C  1 YY   -0.004076   0.009574   0.004077   0.001321  -0.012745
   12  C  1 ZZ   -0.003247   0.008329   0.003333   0.001322  -0.011501
   13  C  1 XY    0.199574   0.131866   0.023399  -0.384943   0.034951
   14  C  1 XZ    0.476854   0.146142   0.040861   0.079719  -0.406240
   15  C  1 YZ    0.556072   0.187833  -0.531941   0.446302   0.091932
   16  C  2  S    0.000879  -0.002531  -0.000907  -0.000494   0.002868
   17  C  2  S   -0.004678   0.013346   0.004920   0.002525  -0.014029
   18  C  2  X    0.000534  -0.001490  -0.000552  -0.000264   0.001625
   19  C  2  Y    0.280179  -0.142180   0.489825   0.116040   0.065731
   20  C  2  Z    0.181979  -0.379842  -0.155078  -0.083659   0.485870
   21  C  2  S   -0.007478   0.021101   0.007434   0.004165  -0.027672
   22  C  2  X   -0.001070   0.003074   0.001132   0.000572  -0.003826
   23  C  2  Y   -2.082338  -0.082815  -2.052764   1.417154  -0.428126
   24  C  2  Z    0.064191   0.383858   0.148227   0.106147  -0.590524
   25  C  2 XX    0.003909  -0.011164  -0.004148  -0.002035   0.013050
   26  C  2 YY    0.003734  -0.010522  -0.003892  -0.001976   0.011597
   27  C  2 ZZ    0.003317  -0.009184  -0.003254  -0.001811   0.010412
   28  C  2 XY    0.277800   0.005846   0.280755  -0.179249   0.058200
   29  C  2 XZ    0.510720   0.051772   0.002710   0.058020  -0.281051
   30  C  2 YZ    0.056101  -0.736557  -0.184858  -0.231409  -0.578446
   31  H  3  S   -0.350937  -0.242833  -0.023387   0.699611  -0.061984
   32  H  3  S   -0.885391   0.289736  -1.334441  -0.055476  -0.194201
   33  H  4  S    0.349564   0.245564   0.024749  -0.699416   0.058327
   34  H  4  S    0.888438  -0.297480   1.331555   0.054100   0.204939
   35  H  5  S   -0.500243  -0.003984  -0.518827   0.305268  -0.102144
   36  H  5  S   -0.308663  -0.635607   0.573348   1.465908  -0.035179
   37  H  6  S    0.501421   0.000334   0.517557  -0.306016   0.105901
   38  H  6  S    0.305876   0.644081  -0.570602  -1.463984   0.024476

                     31         32         33         34         35

                   -0.0000    -0.0000    -0.0000    -0.0000    -0.0001

    1  C  1  S   -0.324194  -0.074865   0.065171   0.000001  -0.065425
    2  C  1  S    1.780902  -0.463835  -0.598180  -0.000001  -0.959106
    3  C  1  X   -0.036586  -0.372942   0.171184   0.000007   0.690894
    4  C  1  Y   -0.000012   0.000033   0.000001   0.428831   0.000003
    5  C  1  Z    0.000018   0.000407   0.000034   0.000404   0.000094
    6  C  1  S    1.431560   3.594243  -0.096888  -0.000035   4.358667
    7  C  1  X    0.148099  -1.363331  -0.292343   0.000011  -2.091447
    8  C  1  Y   -0.000254  -0.000024   0.000020  -0.339682   0.000044
    9  C  1  Z   -0.000139  -0.000680  -0.000028  -0.000366  -0.000372
   10  C  1 XX   -1.007647   0.731222   0.390060  -0.000010  -0.405273
   11  C  1 YY   -1.204897   0.204784   0.732851   0.000025   0.043483
   12  C  1 ZZ   -1.446212  -0.742429  -0.316849  -0.000011   0.267004
   13  C  1 XY   -0.000042  -0.000000   0.000020  -0.706053   0.000004
   14  C  1 XZ    0.000352   0.000212   0.000098  -0.000062  -0.000208
   15  C  1 YZ   -0.000393   0.000265   0.000267  -0.000235   0.000080
   16  C  2  S   -0.324246   0.075204   0.065189   0.000001   0.065421
[...]
 C           6.0   0.0317866990   0.0146789443  -0.0726492019
 C           6.0  -1.3510650174   0.0066084804  -0.0534495906
 H           1.0  -1.9124791212  -0.7216422901   0.5451415084
 H           1.0  -1.9914118733   0.7835033611  -0.4719929558
 H           1.0   0.6243423539   0.7148157314   0.5285865681
 H           1.0   0.6377360890  -0.7979691270  -0.4763603782

          INTERNUCLEAR DISTANCES (ANGS.)
          ------------------------------

                1 C          2 C          3 H          4 H          5 H     

   1 C       0.0000000    1.3830085 *  2.1688716 *  2.2008859 *  1.0967216 *
   2 C       1.3830085 *  0.0000000    1.0971993 *  1.0903157 *  2.1777415 *
   3 H       2.1688716 *  1.0971993 *  0.0000000    1.8183114 *  2.9153300 *
   4 H       2.2008859 *  1.0903157 *  1.8183114 *  0.0000000    2.8014367 *
   5 H       1.0967216 *  2.1777415 *  2.9153300 *  2.8014367 *  0.0000000  
   6 H       1.0911252 *  2.1866706 *  2.7482521 *  3.0681417    1.8162092 *

                6 H     

   1 C       1.0911252 *
   2 C       2.1866706 *
   3 H       2.7482521 *
   4 H       3.0681417  
   5 H       1.8162092 *
   6 H       0.0000000  

  * ... LESS THAN  3.000


          NUCLEAR ENERGY    =       32.5197397407
          ELECTRONIC ENERGY =        0.0000000000
          TOTAL ENERGY      =        0.0000000000

          ------------------
          MOLECULAR ORBITALS
          ------------------

                      1          2          3          4          5
                  -10.6017   -10.6004    -0.8542    -0.6722    -0.5037
                     A          A          A          A          A   
    1  C  1  S    0.340613   0.933753   0.156636   0.122419  -0.003402
    2  C  1  S    0.013536   0.037895  -0.305301  -0.244577   0.007672
    3  C  1  X    0.000365  -0.000205   0.093073  -0.165090   0.013755
    4  C  1  Y   -0.000023  -0.000051   0.005165   0.013087   0.305698
    5  C  1  Z    0.000036   0.000064  -0.010996  -0.014051   0.109713
    6  C  1  S   -0.001012  -0.012677  -0.242354  -0.241437   0.006060
    7  C  1  X   -0.001572   0.001264   0.003600  -0.063472   0.007944
    8  C  1  Y    0.000122   0.000169   0.002913   0.003460   0.125259
    9  C  1  Z   -0.000063  -0.000300  -0.004002  -0.007257   0.036654
   10  C  1 XX   -0.002459  -0.005594  -0.011994   0.004331  -0.000516
   11  C  1 YY   -0.002364  -0.006038   0.004444  -0.008381  -0.002845
   12  C  1 ZZ   -0.002344  -0.006219   0.009480   0.003507   0.003671
   13  C  1 XY   -0.000025  -0.000025   0.000822   0.001722   0.007718
   14  C  1 XZ    0.000001   0.000021  -0.000799  -0.002772   0.012910
   15  C  1 YZ    0.000102   0.000131  -0.008953  -0.013787   0.003196
   16  C  2  S    0.933613  -0.340992   0.156938  -0.122277   0.002287
   17  C  2  S    0.037692  -0.014054  -0.306139   0.244531  -0.005367
   18  C  2  X   -0.000086  -0.000408  -0.092926  -0.167646  -0.015389
   19  C  2  Y    0.000014   0.000004  -0.002118   0.010070   0.309782
   20  C  2  Z    0.000036   0.000011  -0.007232   0.011880  -0.115576
   21  C  2  S   -0.010277   0.007399  -0.242666   0.241487  -0.000770
   22  C  2  X    0.000062   0.002033  -0.003414  -0.064239  -0.003148
   23  C  2  Y   -0.000104  -0.000067  -0.001682   0.001997   0.127590
   24  C  2  Z   -0.000188   0.000115  -0.003138   0.006892  -0.039340
   25  C  2 XX   -0.005859   0.001722  -0.012100  -0.004251   0.001482
   26  C  2 YY   -0.006146   0.002081   0.004618   0.008187   0.001752
   27  C  2 ZZ   -0.006271   0.002214   0.009406  -0.003359  -0.003157
   28  C  2 XY   -0.000040   0.000001   0.001020  -0.002030  -0.008326
   29  C  2 XZ   -0.000004   0.000025   0.000939  -0.001722   0.012904
   30  C  2 YZ   -0.000171   0.000010   0.009117  -0.014074   0.002621
   31  H  3  S   -0.000267  -0.000050  -0.086240   0.140495  -0.161183
   32  H  3  S    0.002175  -0.000498  -0.016665   0.061743  -0.126748
   33  H  4  S   -0.000289   0.000001  -0.083291   0.148065   0.161564
   34  H  4  S    0.002166  -0.000429  -0.015096   0.066313   0.124877
   35  H  5  S   -0.000207  -0.000181  -0.085367  -0.142020   0.164156
   36  H  5  S    0.001043   0.001967  -0.016448  -0.062516   0.129241
   37  H  6  S   -0.000183  -0.000200  -0.083895  -0.145613  -0.151619
   38  H  6  S    0.001054   0.001977  -0.015155  -0.065018  -0.117808

                      6          7          8          9         10
                   -0.4897    -0.4637    -0.2378    -0.0140     0.1811
                     A          A          A          A          A   
    1  C  1  S    0.013090   0.003691   0.007165  -0.013797  -0.108966
    2  C  1  S   -0.032923  -0.008011  -0.013350   0.027869   0.129744
    3  C  1  X    0.406418  -0.030978  -0.037358   0.019930   0.082588
    4  C  1  Y   -0.012174   0.204036  -0.256491   0.188538  -0.026973
    5  C  1  Z    0.035329   0.255253   0.281258  -0.314309   0.022419
    6  C  1  S   -0.001029  -0.011907  -0.037470   0.055659   1.620419
    7  C  1  X    0.148450  -0.012584  -0.028846   0.058109   0.259742
    8  C  1  Y   -0.005442   0.091926  -0.206136   0.263915  -0.067149
    9  C  1  Z    0.016089   0.121461   0.282472  -0.386212   0.111803
   10  C  1 XX   -0.008316  -0.000187   0.000189  -0.001125  -0.013525
   11  C  1 YY    0.014966  -0.004479   0.001625   0.000423  -0.005182
   12  C  1 ZZ    0.005459   0.004336  -0.000469  -0.002365  -0.007905
   13  C  1 XY   -0.001451   0.022328  -0.020001  -0.014350   0.002886
   14  C  1 XZ    0.001472   0.000840  -0.021795  -0.022003   0.002051
   15  C  1 YZ    0.009421   0.001115  -0.002030  -0.000404  -0.005392
   16  C  2  S    0.013480   0.001886   0.004025   0.011593   0.111196
   17  C  2  S   -0.033604  -0.004021  -0.005886  -0.025329  -0.132868
   18  C  2  X   -0.405485   0.038492   0.039322   0.013856   0.090052
   19  C  2  Y   -0.012107  -0.193987   0.258606   0.193240  -0.030512
   20  C  2  Z    0.045936   0.254583   0.277295   0.314745  -0.014862
   21  C  2  S   -0.003540  -0.007290  -0.031589  -0.034534  -1.663177
   22  C  2  X   -0.149071   0.015458   0.028442   0.052024   0.279585
   23  C  2  Y   -0.004469  -0.087421   0.207778   0.270523  -0.073708
   24  C  2  Z    0.018811   0.121698   0.279671   0.385981  -0.090816
   25  C  2 XX   -0.008044  -0.001212   0.001628  -0.000242   0.013663
   26  C  2 YY    0.014693  -0.002528   0.000650  -0.000074   0.005245
   27  C  2 ZZ    0.005610   0.003347  -0.001396   0.002626   0.007990
   28  C  2 XY   -0.001361   0.022329  -0.019924   0.013926  -0.002826
   29  C  2 XZ   -0.000454  -0.000834   0.021876  -0.022024   0.002398
   30  C  2 YZ   -0.009744  -0.001773   0.002179  -0.001211  -0.005138
   31  H  3  S    0.132994   0.158325  -0.087128   0.091645   0.039137
   32  H  3  S    0.108549   0.128046  -0.143561   0.213207   0.934639
   33  H  4  S    0.114751  -0.168765   0.091178  -0.063823   0.056790
   34  H  4  S    0.091943  -0.137679   0.139375  -0.141576   1.081436
   35  H  5  S    0.127054   0.159901  -0.083862  -0.095773  -0.039010
   36  H  5  S    0.102885   0.129575  -0.140425  -0.219172  -0.941694
   37  H  6  S    0.121627  -0.173891   0.094242   0.061626  -0.054299
   38  H  6  S    0.098261  -0.142233   0.141219   0.139281  -1.017014

                     11         12         13         14         15
                    0.1875     0.2275     0.2611     0.3632     0.5609
                     A          A          A          A          A   
    1  C  1  S   -0.082971  -0.005657  -0.004839  -0.080514   0.020257
    2  C  1  S    0.130734  -0.002911   0.001608   0.065246   0.264015
    3  C  1  X    0.180855   0.014830   0.013427  -0.188720  -0.572805
    4  C  1  Y   -0.007087   0.224136  -0.261198   0.016885  -0.004625
    5  C  1  Z    0.028763   0.211201  -0.162896  -0.014793  -0.003765
    6  C  1  S    1.450053   0.182895   0.159756   2.589620   0.199103
    7  C  1  X    0.613771   0.025467   0.052916  -2.680153   1.027605
    8  C  1  Y   -0.061418   0.583485  -1.251607   0.016696  -0.013511
    9  C  1  Z    0.073504   0.854189  -0.397193  -0.039309   0.004076
   10  C  1 XX    0.005951   0.000491   0.000225  -0.013191   0.099772
   11  C  1 YY   -0.008217  -0.001657  -0.001345   0.014439  -0.020354
   12  C  1 ZZ   -0.004199  -0.000505   0.000521   0.003845  -0.012266
   13  C  1 XY   -0.000373  -0.017577  -0.013989  -0.001325  -0.000257
   14  C  1 XZ   -0.000934   0.010023   0.009250  -0.001853  -0.001555
   15  C  1 YZ    0.005069  -0.001086  -0.000811   0.022396  -0.009057
   16  C  2  S   -0.080293  -0.000021  -0.001929   0.080416   0.020609
   17  C  2  S    0.128646   0.012412   0.003290  -0.066330   0.265703
   18  C  2  X   -0.178225  -0.009433  -0.013558  -0.188262   0.569675
   19  C  2  Y   -0.017434   0.222186   0.259183   0.012817   0.031924
   20  C  2  Z    0.041100  -0.209929  -0.166030   0.012676  -0.022375
   21  C  2  S    1.402614  -0.064385   0.062365  -2.580358   0.192576
   22  C  2  X   -0.614565  -0.059345  -0.088742  -2.684239  -1.034403
   23  C  2  Y   -0.007247   0.581679   1.245695   0.006553  -0.014679
   24  C  2  Z    0.108518  -0.850822  -0.415141   0.100773   0.034931
   25  C  2 XX    0.006596   0.000030  -0.000512   0.013180   0.100800
   26  C  2 YY   -0.008216   0.002166  -0.001575  -0.014270  -0.019976
   27  C  2 ZZ   -0.003914  -0.000150   0.002287  -0.004211  -0.012654
   28  C  2 XY   -0.001800   0.017468  -0.014138   0.002549  -0.000586
   29  C  2 XZ    0.000959   0.010054  -0.008897  -0.002952  -0.001335
   30  C  2 YZ   -0.004971  -0.001878   0.000833   0.022549   0.009369
   31  H  3  S   -0.021846   0.024232   0.000493  -0.059297  -0.064322
   32  H  3  S   -1.102490   1.128169   1.208954  -0.482365  -0.099702
   33  H  4  S   -0.011743  -0.029374   0.006665  -0.050218  -0.025904
   34  H  4  S   -0.960476  -1.074815  -1.323702  -0.570758  -0.194209
   35  H  5  S   -0.018958  -0.023883   0.000726   0.055337  -0.052382
   36  H  5  S   -1.050808  -1.217188   1.161675   0.500946  -0.114937
   37  H  6  S   -0.016900   0.030770   0.005564   0.054875  -0.043634
   38  H  6  S   -1.053486   0.989325  -1.363440   0.540302  -0.165461

                     16         17         18
                    0.6480     0.6591     0.7157
                     A          A          A   
    1  C  1  S   -0.003733   0.012353  -0.035764
    2  C  1  S    0.076463  -0.010536  -0.047015
    3  C  1  X    0.013000   0.040217  -0.312219
    4  C  1  Y    0.402640  -0.550809  -0.029417
    5  C  1  Z   -0.631133   0.363833   0.549029
    6  C  1  S   -0.071308   0.035759   0.112273
    7  C  1  X    0.012862  -0.157073   0.423682
    8  C  1  Y   -0.329054   0.769684  -0.200758
    9  C  1  Z    0.629936  -0.036063  -1.100367
   10  C  1 XX    0.009882   0.015686  -0.082588
   11  C  1 YY    0.006759   0.011335  -0.013090
   12  C  1 ZZ    0.001314  -0.015396   0.026424
   13  C  1 XY    0.008747  -0.041806   0.086722
   14  C  1 XZ    0.039314  -0.000350   0.019225
   15  C  1 YZ   -0.001751   0.005767  -0.027796
   16  C  2  S   -0.001913  -0.010506   0.032702
   17  C  2  S    0.074182   0.003420  -0.017145
   18  C  2  X   -0.029029   0.062884  -0.339749
   19  C  2  Y   -0.412942  -0.548869  -0.026497
   20  C  2  Z   -0.637904  -0.360993  -0.530175
   21  C  2  S   -0.061289  -0.000171  -0.026664
   22  C  2  X    0.048318  -0.218680   0.461323
   23  C  2  Y    0.337604   0.759400  -0.213638
   24  C  2  Z    0.637242   0.034058   1.093271
   25  C  2 XX    0.008388  -0.014489   0.075474
   26  C  2 YY    0.007239  -0.008466   0.001872
   27  C  2 ZZ    0.003077   0.009771  -0.024869
   28  C  2 XY    0.007246   0.042328  -0.088637
   29  C  2 XZ   -0.039207  -0.001076   0.024390
   30  C  2 YZ   -0.001459   0.005791  -0.020484
   31  H  3  S   -0.023271   0.170360  -0.110694
   32  H  3  S   -0.151916   0.137281  -0.051164
   33  H  4  S    0.046599  -0.303491   0.374877
   34  H  4  S    0.134894  -0.201881   0.109787
   35  H  5  S   -0.034606  -0.169804   0.061701
   36  H  5  S   -0.166738  -0.148203   0.059398
   37  H  6  S    0.031505   0.303202  -0.395678
   38  H  6  S    0.124350   0.192519  -0.108719

     ------------------------------------------
     PROPERTIES FOR THE BHHLYP   DFT FUNCTIONAL
      USING THE RELAXED DENSITY OF EXCITED STATE    1
     ------------------------------------------

          -----------------
          ENERGY COMPONENTS
          -----------------

         WAVEFUNCTION NORMALIZATION =       1.0000000000

                ONE ELECTRON ENERGY =    -168.3493646468
                TWO ELECTRON ENERGY =      57.5044447235
           NUCLEAR REPULSION ENERGY =      32.5207453059
                                      ------------------
                       TOTAL ENERGY =     -78.3241746174

 ELECTRON-ELECTRON POTENTIAL ENERGY =      57.5044447235
  NUCLEUS-ELECTRON POTENTIAL ENERGY =    -246.1314005778
   NUCLEUS-NUCLEUS POTENTIAL ENERGY =      32.5207453059
                                      ------------------
             TOTAL POTENTIAL ENERGY =    -156.1062105484
               TOTAL KINETIC ENERGY =      77.7820359310
                 VIRIAL RATIO (V/T) =       2.0069699729

          ---------------------------------------
          MULLIKEN AND LOWDIN POPULATION ANALYSES
          ---------------------------------------

     ATOMIC MULLIKEN POPULATION IN EACH MOLECULAR ORBITAL

                      1          2          3          4          5

                  2.000000   2.000000   2.000000   2.000000   2.000000

    1             0.235627   1.763507   0.876949   0.648743   0.584883
    2             1.763374   0.235784   0.879026   0.652466   0.604603
    3             0.000407   0.000021   0.063628   0.165493   0.206680
    4             0.000404   0.000018   0.058589   0.184997   0.206560
    5             0.000093   0.000333   0.062310   0.169212   0.214670
    6             0.000094   0.000337   0.059498   0.179089   0.182603

                      6          7          8

                  2.000000   2.000000   2.000000

    1             0.744728   0.590247   0.901798
    2             0.744483   0.569780   0.893911
    3             0.146887   0.191598   0.050603
    4             0.108048   0.219211   0.051656
    5             0.133546   0.195609   0.047358
    6             0.122307   0.233556   0.054674

               ----- POPULATIONS IN EACH AO -----
                             MULLIKEN      LOWDIN
              1  C  1  S      1.99364     1.98051
              2  C  1  S      0.69421     0.36899
              3  C  1  X      0.74566     0.66012
              4  C  1  Y      0.63431     0.57699
              5  C  1  Z      0.60123     0.56591
              6  C  1  S      0.60528     0.34552
              7  C  1  X      0.22594     0.37857
              8  C  1  Y      0.38937     0.47846
              9  C  1  Z      0.44827     0.50178
             10  C  1 XX      0.01260     0.18186
             11  C  1 YY      0.00255     0.14666
             12  C  1 ZZ     -0.01355     0.12262
             13  C  1 XY      0.01428     0.02706
             14  C  1 XZ      0.01054     0.02140
             15  C  1 YZ      0.00419     0.00592
             16  C  2  S      1.99363     1.98051
             17  C  2  S      0.69447     0.36899
             18  C  2  X      0.74704     0.66125
             19  C  2  Y      0.63236     0.57587
             20  C  2  Z      0.60163     0.56569
             21  C  2  S      0.60348     0.34485
             22  C  2  X      0.22692     0.37892
             23  C  2  Y      0.39218     0.47852
             24  C  2  Z      0.44528     0.49999
             25  C  2 XX      0.01287     0.18225
             26  C  2 YY      0.00191     0.14565
             27  C  2 ZZ     -0.01340     0.12280
             28  C  2 XY      0.01426     0.02702
             29  C  2 XZ      0.01055     0.02146
             30  C  2 YZ      0.00439     0.00621
             31  H  3  S      0.50762     0.46462
             32  H  3  S      0.31279     0.35831
             33  H  4  S      0.50873     0.46337
             34  H  4  S      0.30249     0.35239
             35  H  5  S      0.50813     0.46520
             36  H  5  S      0.31289     0.35865
             37  H  6  S      0.50792     0.46283
             38  H  6  S      0.30333     0.35227

          ----- MULLIKEN ATOMIC OVERLAP POPULATIONS -----
          (OFF-DIAGONAL ELEMENTS NEED TO BE MULTIPLIED BY 2)

             1           2           3           4           5

    1    5.2759894
    2    0.5090143   5.2758949
    3   -0.0610935   0.3401446   0.5983243
    4   -0.0475479   0.3518931  -0.0591107   0.5621571
    5    0.3388527  -0.0600792  -0.0008346   0.0029594   0.5993558
    6    0.3532944  -0.0492824   0.0029832   0.0008696  -0.0592313

             6

    6    0.5626153

          TOTAL MULLIKEN AND LOWDIN ATOMIC POPULATIONS
       ATOM         MULL.POP.    CHARGE          LOW.POP.     CHARGE
    1 C             6.368509   -0.368509         6.362379   -0.362379
    2 C             6.367585   -0.367585         6.359974   -0.359974
    3 H             0.820413    0.179587         0.822935    0.177065
    4 H             0.811221    0.188779         0.815761    0.184239
    5 H             0.821023    0.178977         0.823851    0.176149
    6 H             0.811249    0.188751         0.815100    0.184900

          -------------------------------
          BOND ORDER AND VALENCE ANALYSIS     BOND ORDER THRESHOLD=0.050
          -------------------------------

                   BOND                       BOND                       BOND
  ATOM PAIR DIST  ORDER      ATOM PAIR DIST  ORDER      ATOM PAIR DIST  ORDER
    1   2  1.383  1.337        1   5  1.097  0.858        1   6  1.091  0.873
    2   3  1.097  0.858        2   4  1.090  0.874

                       TOTAL       BONDED        FREE
      ATOM            VALENCE     VALENCE     VALENCE
    1 C                 3.882       3.031       0.850
    2 C                 3.884       3.033       0.851
    3 H                 0.916       0.823       0.093
    4 H                 0.919       0.846       0.074
    5 H                 0.916       0.823       0.093
    6 H                 0.920       0.844       0.076

          ---------------------
          ELECTROSTATIC MOMENTS
          ---------------------

 POINT   1           X           Y           Z (BOHR)    CHARGE
                -1.246758    0.015774   -0.093493       -0.00 (A.U.)
         DX          DY          DZ         /D/  (DEBYE)
    -0.017145   -0.060748    0.312184    0.318502
 ...... END OF PROPERTY EVALUATION ......
 STEP CPU TIME =     0.01 TOTAL CPU TIME =       1814.5 (     30.2 MIN)
 TOTAL WALL CLOCK TIME=       1852.9 SECONDS, CPU UTILIZATION IS    97.93%
  $VIB   
          IVIB=   0 IATOM=   0 ICOORD=   0 E=      -78.3241746174
  7.298512334E-04 8.162751640E-04-4.706970914E-03-4.109275091E-04 3.099927638E-04
 -4.229631639E-03 1.277275491E-03-9.789776226E-03-1.119611607E-02 8.709011700E-04
  8.680535250E-03 1.490860060E-02-6.496816487E-04 8.978241099E-03-1.056540905E-02
 -1.817418736E-03-8.995268051E-03 1.578952708E-02
 -1.714536430E-02-6.074811436E-02 3.121841873E-01
 ......END OF GEOMETRY SEARCH......
 STEP CPU TIME =     0.00 TOTAL CPU TIME =       1814.5 (     30.2 MIN)
 TOTAL WALL CLOCK TIME=       1852.9 SECONDS, CPU UTILIZATION IS    97.93%
              2095837  WORDS OF DYNAMIC MEMORY USED
 EXECUTION OF GAMESS TERMINATED NORMALLY 18:53:09 10-MAR-2022    
 DDI: 263640 bytes (0.3 MB / 0 MWords) used by master data server.

 ----------------------------------------
 CPU timing information for all processes
 ========================================
 0: 1811.370 + 3.145 = 1814.515
 ----------------------------------------
Note: The following floating-point exceptions are signalling: IEEE_UNDERFLOW_FLAG IEEE_DENORMAL
 ddikick.x: exited gracefully.
