
 Distributed Data Interface kickoff program.
 Initiating 1 compute processes on 1 nodes to run the following command:
 /usr/local/gamess/gamess.00.x /home/webmo/webmo/yamnor/78/input 

          *******************************************************
          *                                                     *
          *      GAMESS VERSION = 30 SEP 2021 (R2 Patch 1)      *
          *                                                     *
          *              doi.org/10.1063/5.0005188              *
          *                                                     *
          **************** 64 BIT LINUX VERSION *****************

  GAMESS HAS BEEN MADE POSSIBLE WITH IMPORTANT CONTRIBUTIONS FROM
  THE FOLLOWING INDIVIDUALS (IN ALPHABETICAL ORDER):

     IVANA ADAMOVIC, CHRISTINE AIKENS, TOMOKO AKAMA,
     YURI ALEXEEV, YURIKO AOKI, POOJA ARORA, TOSHIO ASADA,
     ANDREY ASADCHEV, KIM K. BALDRIDGE, PRADIPTA BANDYOPADHYAY,
     TAYLOR A. BARNES, MARIA BARYSZ, ROB BELL,
     JONATHAN BENTZ, COLLEEN BERTONI,
     JERRY A. BOATZ, BRETT BODE, KURT BRORSEN, KURT R. BRORSEN,
     LAIMUTIS BYTAUTAS, CALEB CARLIN, LAURA CARRINGTON,
     GALINA CHABAN, BENOIT CHAMPAGNE, WEI CHEN, MAHITO CHIBA,
     DAN CHIPMAN, CHEOL HO CHOI, TANNER CULPITT,
     DIPAYAN DATTA, PAUL DAY, ALBERT DEFUSCO,
     NUWAN DESILVA, J. EMILIANO DEUSTUA,
     TIM DUDLEY, MICHEL DUPUIS, STEVEN T. ELBERT,
     DMITRI FEDOROV, ALEX FINDLATER, GRAHAM FLETCHER,
     MARK FREITAG, CHRISTIAN FRIEDL, DAVID GARMER,
     IGOR S. GERASIMOV, KURT GLAESEMANN, MARK S. GORDON,
     JEFFREY GOUR, FENG LONG GU, EMILIE B. GUIDEZ,
     ANASTASIA GUNINA, SHARON HAMMES-SCHIFFER, MASATAKE HARUTA,
     KIMIHIKO HIRAO, YASUHIRO IKABATA, TZVETELIN IORDANOV,
     STEPHAN IRLE, KAZUYA ISHIMURA, JOE IVANIC, FRANK JENSEN,
     JAN H. JENSEN, VISVALDAS KAIRYS, MUNEAKI KAMIYA,
     MICHIO KATOUDA, NAOAKI KAWAKAMI, DAN KEMP, BERNARD KIRTMAN,
     KAZUO KITAURA, MARIUSZ KLOBUKOWSKI, MASATO KOBAYASHI,
     PRAKASHAN KORAMBATH, JACEK KORCHOWIEC, SHIRO KOSEKI,
     KAROL KOWALSKI, JIMMY KROMANN, STANISLAW KUCHARSKI,
     HENRY KURTZ, SAROM SOK LEANG, HUI LI, SHUHUA LI, WEI LI,
     JESSE LUTZ, ALEKSANDR O. LYKHIN, MARCIN MAKOWSKI,
     JOANI MATO, NIKITA MATSUNAGA, BENEDETTA MENNUCCI,
     GRANT MERRILL, NORIYUKI MINEZAWA, VLADIMIR MIRONOV,
     EISAKU MIYOSHI, JOHN A. MONTGOMERY JR., HIROTOSHI MORI,
     JONATHAN MULLIN, MONIKA MUSIAL, SHIGERU NAGASE,
     TAKESHI NAGATA, HIROMI NAKAI, TAKAHITO NAKAJIMA,
     YUYA NAKAJIMA, HARUYUKI NAKANO, HIROYA NAKATA, SEAN NEDD,
     HEATHER NETZLOFF, KIET A. NGUYEN, YOSHIO NISHIMOTO,
     BOSILJKA NJEGIC, RYAN OLSON, MIKE PAK, ROBERTO PEVERATI,
     BUU PHAM, PIOTR PIECUCH, ANNA POMOGAEVA, DAVID POOLE,
     SPENCER PRUITT, OLIVIER QUINET, LUKE ROSKOP,
     KLAUS RUEDENBERG, ANDREW SAND, TOSAPORN SATTASATHUCHANA,
     NOZOMI SAWADA, MICHAEL W. SCHMIDT, PATRICK E. SCHNEIDER,
     JUNJI SEINO, PRACHI SHARMA, JUN SHEN, JIM SHOEMAKER,
     YINAN SHU, DEJUN SI, JONATHAN SKONE, LYUDMILA SLIPCHENKO,
     TONY SMITH, JIE SONG, MARK SPACKMAN, CASPER STEINMANN,
     WALT STEVENS, PEIFENG SU, SHUJUN SU, CHET SWALINA,
     TETSUYA TAKETSUGU, ZHEN TAO, NANDUN THELLAMUREGE
     SEIKEN TOKURA, JACOPO TOMASI, TSUGUKI TOUMA, TAKAO TSUNEDA,
     HIROAKI UMEDA, JORGE LUIS GALVEZ VALLEJO, YALI WANG,
     SIMON WEBB, AARON WEST, THERESA L. WINDUS, MARTA WLOCH,
     PENG XU, KIYOSHI YAGI, SUSUMU YANAGISAWA, YANG YANG,
     SOOHAENG YOO, TAKESHI YOSHIKAWA, FEDERICO ZAHARIEV,
     TOBY ZENG

  WHO ARE SUPPORTED BY THEIR INSTITUTION/UNIVERSITY/COMPANY/GROUP
  (IN ALPHABETICAL ORDER):

     EP ANALYTICS, FACULTES UNIVERSITAIRES NOTRE-DAME DE LA PAIX,
     INSTITUTE FOR MOLECULAR SCIENCE, IOWA STATE UNIVERSITY,
     JACKSON STATE UNIVERSITY, JOHANNES KEPLER UNIVERSITY LINZ,
     KYUSHU UNIVERSITY, MICHIGAN STATE UNIVERSITY,
     MIE UNIVERSITY, THE MOLECULAR SCIENCES SOFTWARE INSTITUTE,
     MOSCOW STATE UNIVERSITY,
     N. COPERNICUS UNIVERSITY, NAGOYA UNIVERSITY,
     NANJING UNIVERSITY, NAT. INST. OF ADVANCED INDUSTRIAL
     SCIENCE AND TECHNOLOGY, NATIONAL INST. OF STANDARDS AND
     TECHNOLOGY, NESMEYANOV INSTITUTE OF ORGANOELEMENT COMPOUNDS
     OF RUSSIAN ACADEMY OF SCIENCES, OSAKA PREFECTURE UNIVERSITY,
     PENNSYLVANIA STATE UNIVERSITY, TOKYO INSTITUTE OF TECHNOLOGY,
     UNIVERSITY OF AARHUS, UNIVERSITY OF ALBERTA,
     UNIVERSITY OF CALIFORNIA AT SANTA BARBARA,
     UNIVERSITY OF COPENHAGEN, UNIVERSITY OF IOWA,
     UNIVERSITY OF MEMPHIS, UNIVERSITY OF MINNESOTA,
     UNIVERSITY OF NEBRASKA, UNIVERSITY OF NEW ENGLAND,
     UNIVERSITY OF NOTRE DAME, UNIVERSITY OF PISA,
     UNIVERSITY OF SILESIA, UNIVERSITY OF TOKYO,
     UNIVERSITY OF ZURICH, WASEDA UNIVERSITY, YALE UNIVERSITY

  GAMESS SOFTWARE MANAGEMENT TEAM FOR THIS RELEASE:
     MARK S. GORDON (TEAM LEAD),
     BRETT BODE (SENIOR ADVISOR),
     GIUSEPPE BARCA,
     COLLEEN BERTONI,
     KRISTOPHER KEIPERT (ADVISOR),
     SAROM S. LEANG (DEVELOPMENT LEAD),
     BUU PHAM,
     JORGE LUIS GALVEZ VALLEJO (WEBSITE ADMINISTRATOR),
     PENG XU

 EXECUTION OF GAMESS BEGUN 15:20:43 11-MAR-2022    

            ECHO OF THE FIRST FEW INPUT CARDS -
 INPUT CARD> $CONTRL                                                                        
 INPUT CARD>    RUNTYP=OPTIMIZE                                                             
 INPUT CARD>    SCFTYP= RHF                                                                 
 INPUT CARD>    DFTTYP=BHHLYP                                                               
 INPUT CARD>    ICHARG=0                                                                    
 INPUT CARD>    MULT=1                                                                      
 INPUT CARD>    COORD=UNIQUE                                                                
 INPUT CARD> $END                                                                           
 INPUT CARD> $STATPT                                                                        
 INPUT CARD>    NSTEP=100                                                                   
 INPUT CARD> $END                                                                           
 INPUT CARD> $SYSTEM                                                                        
 INPUT CARD>    MWORDS=128                                                                  
 INPUT CARD> $END                                                                           
 INPUT CARD> $BASIS                                                                         
 INPUT CARD>    GBASIS=N31 NGAUSS=6 NDFUNC=1                                                
 INPUT CARD> $END                                                                           
 INPUT CARD> $DATA                                                                          
 INPUT CARD>C2H4                                                                            
 INPUT CARD>C1 1                                                                            
 INPUT CARD>C 6 0.00000000 0.00000000 0.00000000                                            
 INPUT CARD>C 6 -1.31000000 0.00000000 0.00050000                                           
 INPUT CARD>H 1 -1.85000000 -0.93530000 -0.00050000                                         
 INPUT CARD>H 1 -1.85000000 0.93530000 0.00180000                                           
 INPUT CARD>H 1 0.54000000 0.93530000 0.00100000                                            
 INPUT CARD>H 1 0.54000000 -0.93530000 0.00320000                                           
 INPUT CARD> $END                                                                           
 INPUT CARD>                                                                                
  128000000 WORDS OF MEMORY AVAILABLE

     BASIS OPTIONS
     -------------
     GBASIS=N31          IGAUSS=       6      POLAR=POPN31  
     NDFUNC=       1     NFFUNC=       0     DIFFSP=       F
     NPFUNC=       0      DIFFS=       F     BASNAM=        


     RUN TITLE
     ---------
 C2H4                                                                            

 THE POINT GROUP OF THE MOLECULE IS C1      
 THE ORDER OF THE PRINCIPAL AXIS IS     1

 ATOM      ATOMIC                      COORDINATES (BOHR)
           CHARGE         X                   Y                   Z
 C           6.0     0.0000000000        0.0000000000        0.0000000000
 C           6.0    -2.4755410439        0.0000000000        0.0009448630
 H           1.0    -3.4959930773       -1.7674607163       -0.0009448630
 H           1.0    -3.4959930773        1.7674607163        0.0034015068
 H           1.0     1.0204520334        1.7674607163        0.0018897260
 H           1.0     1.0204520334       -1.7674607163        0.0060471232

          INTERNUCLEAR DISTANCES (ANGS.)
          ------------------------------

                1 C          2 C          3 H          4 H          5 H     

   1 C       0.0000000    1.3100001 *  2.0729897 *  2.0729904 *  1.0799940 *
   2 C       1.3100001 *  0.0000000    1.0799940 *  1.0799943 *  2.0729897 *
   3 H       2.0729897 *  1.0799940 *  0.0000000    1.8706014 *  3.0350036  
   4 H       2.0729904 *  1.0799943 *  1.8706014 *  0.0000000    2.3900001 *
   5 H       1.0799940 *  2.0729897 *  3.0350036    2.3900001 *  0.0000000  
   6 H       1.0799983 *  2.0729914 *  2.3900029 *  3.0350035    1.8706013 *

                6 H     

   1 C       1.0799983 *
   2 C       2.0729914 *
   3 H       2.3900029 *
   4 H       3.0350035  
   5 H       1.8706013 *
   6 H       0.0000000  

  * ... LESS THAN  3.000


     ATOMIC BASIS SET
     ----------------
 THE CONTRACTED PRIMITIVE FUNCTIONS HAVE BEEN UNNORMALIZED
 THE CONTRACTED BASIS FUNCTIONS ARE NOW NORMALIZED TO UNITY

  SHELL TYPE  PRIMITIVE        EXPONENT          CONTRACTION COEFFICIENT(S)

 C         

      1   S       1          3047.5248800    0.001834737132
      1   S       2           457.3695180    0.014037322813
      1   S       3           103.9486850    0.068842622264
      1   S       4            29.2101553    0.232184443216
      1   S       5             9.2866630    0.467941348435
      1   S       6             3.1639270    0.362311985337

      2   L       7             7.8682723   -0.119332419775    0.068999066591
      2   L       8             1.8812885   -0.160854151696    0.316423960957
      2   L       9             0.5442493    1.143456437840    0.744308290898

      3   L      10             0.1687145    1.000000000000    1.000000000000

      4   D      11             0.8000000    1.000000000000

 C         

      5   S      12          3047.5248800    0.001834737132
      5   S      13           457.3695180    0.014037322813
      5   S      14           103.9486850    0.068842622264
      5   S      15            29.2101553    0.232184443216
      5   S      16             9.2866630    0.467941348435
      5   S      17             3.1639270    0.362311985337

      6   L      18             7.8682723   -0.119332419775    0.068999066591
      6   L      19             1.8812885   -0.160854151696    0.316423960957
      6   L      20             0.5442493    1.143456437840    0.744308290898

      7   L      21             0.1687145    1.000000000000    1.000000000000

      8   D      22             0.8000000    1.000000000000

 H         

      9   S      23            18.7311370    0.033494604338
      9   S      24             2.8253944    0.234726953484
      9   S      25             0.6401217    0.813757326146

     10   S      26             0.1612778    1.000000000000

 H         

     11   S      27            18.7311370    0.033494604338
     11   S      28             2.8253944    0.234726953484
     11   S      29             0.6401217    0.813757326146

     12   S      30             0.1612778    1.000000000000

 H         

     13   S      31            18.7311370    0.033494604338
     13   S      32             2.8253944    0.234726953484
     13   S      33             0.6401217    0.813757326146

     14   S      34             0.1612778    1.000000000000

 H         

     15   S      35            18.7311370    0.033494604338
     15   S      36             2.8253944    0.234726953484
     15   S      37             0.6401217    0.813757326146

     16   S      38             0.1612778    1.000000000000

 TOTAL NUMBER OF BASIS SET SHELLS             =   16
 NUMBER OF CARTESIAN GAUSSIAN BASIS FUNCTIONS =   38
 NUMBER OF ELECTRONS                          =   16
 CHARGE OF MOLECULE                           =    0
 SPIN MULTIPLICITY                            =    1
 NUMBER OF OCCUPIED ORBITALS (ALPHA)          =    8
 NUMBER OF OCCUPIED ORBITALS (BETA )          =    8
 TOTAL NUMBER OF ATOMS                        =    6
 THE NUCLEAR REPULSION ENERGY IS       33.7856844727

 SELECTED MURRAY-HANDY-LAMING RADIAL GRID

 LEGACY BECKE'S FUZZY CELL METHOD

 SELECTED ORIGINAL BECKE'S PARTITION FUNCTION

     LEBEDEV GRID-BASED DFT OPTIONS
     ------------------------------
     DFTTYP=BHHLYP  
     NRAD  =      96     NLEB  =     302
     NRAD0 =      24     NLEB0 =     110
     SWOFF =    5.00E-03 (PURE SCF -> DFT)
     SWITCH=    3.00E-04 (COARSE -> TIGHT GRID)
     THRESH=    0.00E+00 GTHRE=    1.00E+00

 GRIMME'S EMPIRICAL DISPERSION CORRECTION= F

     $CONTRL OPTIONS
     ---------------
 SCFTYP=RHF          RUNTYP=OPTIMIZE     EXETYP=RUN     
 MPLEVL=       0     CITYP =NONE         CCTYP =NONE         VBTYP =NONE    
 DFTTYP=BHHLYP       TDDFT =NONE    
 MULT  =       1     ICHARG=       0     NZVAR =       0     COORD =UNIQUE  
 PP    =NONE         RELWFN=NONE         LOCAL =NONE         NUMGRD=       F
 ISPHER=      -1     NOSYM =       0     MAXIT =      30     UNITS =ANGS    
 PLTORB=       F     MOLPLT=       F     AIMPAC=       F     FRIEND=        
 NPRINT=       7     IREST =       0     GEOM  =INPUT   
 NORMF =       0     NORMP =       0     ITOL  =      20     ICUT  =       9
 INTTYP=BEST         GRDTYP=BEST         QMTTOL= 1.0E-06

     $SYSTEM OPTIONS
     ---------------
  REPLICATED MEMORY=   128000000 WORDS (ON EVERY NODE).
 DISTRIBUTED MEMDDI=           0 MILLION WORDS IN AGGREGATE,
 MEMDDI DISTRIBUTED OVER   1 PROCESSORS IS           0 WORDS/PROCESSOR.
 TOTAL MEMORY REQUESTED ON EACH PROCESSOR=   128000000 WORDS.
 TIMLIM=      525600.00 MINUTES, OR     365.0 DAYS.
 PARALL= F  BALTYP=  DLB     KDIAG=    0  COREFL= F
 MXSEQ2=     300 MXSEQ3=     150  mem10=         0  mem22=         0

          ----------------
          PROPERTIES INPUT
          ----------------

     MOMENTS            FIELD           POTENTIAL          DENSITY
 IEMOM =       1   IEFLD =       0   IEPOT =       0   IEDEN =       0
 WHERE =COMASS     WHERE =NUCLEI     WHERE =NUCLEI     WHERE =NUCLEI  
 OUTPUT=BOTH       OUTPUT=BOTH       OUTPUT=BOTH       OUTPUT=BOTH    
 IEMINT=       0   IEFINT=       0                     IEDINT=       0
                                                       MORB  =       0
          EXTRAPOLATION IN EFFECT
          DIIS IN EFFECT
 ORBITAL PRINTING OPTION: NPREO=     1    38     2     1

     -------------------------------
     INTEGRAL TRANSFORMATION OPTIONS
     -------------------------------
     NWORD  =            0
     CUTOFF = 1.0E-09     MPTRAN =       0
     DIRTRF =       F     AOINTS =DUP     

          ----------------------
          INTEGRAL INPUT OPTIONS
          ----------------------
 NOPK  =       1 NORDER=       0 SCHWRZ=       T

     ------------------------------------------
     THE POINT GROUP IS C1 , NAXIS= 1, ORDER= 1
     ------------------------------------------

     DIMENSIONS OF THE SYMMETRY SUBSPACES ARE
 A   =   38

 ..... DONE SETTING UP THE RUN .....
 STEP CPU TIME =     0.01 TOTAL CPU TIME =          0.0 (      0.0 MIN)
 TOTAL WALL CLOCK TIME=          0.0 SECONDS, CPU UTILIZATION IS    60.39%


          -----------------------------
          STATIONARY POINT LOCATION RUN
          -----------------------------

 OBTAINING INITIAL HESSIAN, HESS=GUESS   
 CARTESIAN COORDINATE OPTIMIZATION USING BADGER'S RULE FORCE CONSTANT GUESS

          PARAMETERS CONTROLLING GEOMETRY SEARCH ARE
          METHOD =QA                  UPHESS =BFGS    
          NNEG   =         0          NFRZ   =         0
          NSTEP  =       100          IFOLOW =         1
          HESS   =GUESS               RESTAR =         F
          IHREP  =         0          HSSEND =         F
          NPRT   =         0          NPUN   =         0
          OPTTOL = 1.000E-04          RMIN   = 1.500E-03
          RMAX   = 1.000E-01          RLIM   = 7.000E-02
          DXMAX  = 3.000E-01          PURIFY =         F
          MOVIE  =         F          TRUPD  =         T
          TRMAX  = 5.000E-01          TRMIN  = 5.000E-02
          ITBMAT =         5          STPT   =         F
          STSTEP = 1.000E-02          PROJCT=          T

 BEGINNING GEOMETRY SEARCH POINT NSERCH=   0 ...

 COORDINATES OF ALL ATOMS ARE (ANGS)
   ATOM   CHARGE       X              Y              Z
 ------------------------------------------------------------
 C           6.0   0.0000000000   0.0000000000   0.0000000000
 C           6.0  -1.3100000000   0.0000000000   0.0005000000
 H           1.0  -1.8500000000  -0.9353000000  -0.0005000000
 H           1.0  -1.8500000000   0.9353000000   0.0018000000
 H           1.0   0.5400000000   0.9353000000   0.0010000000
 H           1.0   0.5400000000  -0.9353000000   0.0032000000

          ********************
          1 ELECTRON INTEGRALS
          ********************
 ...... END OF ONE-ELECTRON INTEGRALS ......
 STEP CPU TIME =     0.00 TOTAL CPU TIME =          0.0 (      0.0 MIN)
 TOTAL WALL CLOCK TIME=          0.0 SECONDS, CPU UTILIZATION IS    63.26%

          -------------
          GUESS OPTIONS
          -------------
          GUESS =HUCKEL            NORB  =       0          NORDER=       0
          MIX   =       F          PRTMO =       F          PUNMO =       F
          TOLZ  = 1.0E-08          TOLE  = 1.0E-05
          SYMDEN=       F          PURIFY=       F

 INITIAL GUESS ORBITALS GENERATED BY HUCKEL   ROUTINE.
 HUCKEL GUESS REQUIRES     15726 WORDS.

 SYMMETRIES FOR INITIAL GUESS ORBITALS FOLLOW.   BOTH SET(S).
     8 ORBITALS ARE OCCUPIED (    2 CORE ORBITALS).
     3=A        4=A        5=A        6=A        7=A        8=A        9=A   
    10=A       11=A       12=A       13=A       14=A       15=A       16=A   
    17=A       18=A   
 ...... END OF INITIAL ORBITAL SELECTION ......
 STEP CPU TIME =     0.00 TOTAL CPU TIME =          0.0 (      0.0 MIN)
 TOTAL WALL CLOCK TIME=          0.0 SECONDS, CPU UTILIZATION IS    66.41%

                    ----------------------
                    AO INTEGRAL TECHNOLOGY
                    ----------------------
     S,P,L SHELL ROTATED AXIS INTEGRALS, REPROGRAMMED BY
        KAZUYA ISHIMURA (IMS) AND JOSE SIERRA (SYNSTAR).
     S,P,D,L SHELL ROTATED AXIS INTEGRALS PROGRAMMED BY
        KAZUYA ISHIMURA (INSTITUTE FOR MOLECULAR SCIENCE).
     S,P,D,F,G SHELL TO TOTAL QUARTET ANGULAR MOMENTUM SUM 5,
        ERIC PROGRAM BY GRAHAM FLETCHER (ELORET AND NASA ADVANCED
        SUPERCOMPUTING DIVISION, AMES RESEARCH CENTER).
     S,P,D,F,G,L SHELL GENERAL RYS QUADRATURE PROGRAMMED BY
        MICHEL DUPUIS (PACIFIC NORTHWEST NATIONAL LABORATORY).

          --------------------
          2 ELECTRON INTEGRALS
          --------------------

 THE -PK- OPTION IS OFF, THE INTEGRALS ARE NOT IN SUPERMATRIX FORM.
 STORING   15000 INTEGRALS/RECORD ON DISK, USING 12 BYTES/INTEGRAL.
 TWO ELECTRON INTEGRAL EVALUATION REQUIRES   90532 WORDS OF MEMORY.
 SCHWARZ INEQUALITY OVERHEAD:       741 INTEGRALS, T=        0.00
 II,JST,KST,LST =  1  1  1  1 NREC =         1 INTLOC =    1
 II,JST,KST,LST =  2  1  1  1 NREC =         1 INTLOC =    2
 II,JST,KST,LST =  3  1  1  1 NREC =         1 INTLOC =   34
 II,JST,KST,LST =  4  1  1  1 NREC =         1 INTLOC =  214
 II,JST,KST,LST =  5  1  1  1 NREC =         1 INTLOC = 1189
 II,JST,KST,LST =  6  1  1  1 NREC =         1 INTLOC = 2336
 II,JST,KST,LST =  7  1  1  1 NREC =         1 INTLOC = 9222
 II,JST,KST,LST =  8  1  1  1 NREC =         2 INTLOC = 6249
 II,JST,KST,LST =  9  1  1  1 NREC =         4 INTLOC = 6947
 II,JST,KST,LST = 10  1  1  1 NREC =         5 INTLOC = 6757
 II,JST,KST,LST = 11  1  1  1 NREC =         6 INTLOC = 8139
 II,JST,KST,LST = 12  1  1  1 NREC =         7 INTLOC =10910
 II,JST,KST,LST = 13  1  1  1 NREC =         9 INTLOC =  392
 II,JST,KST,LST = 14  1  1  1 NREC =        10 INTLOC = 6473
 II,JST,KST,LST = 15  1  1  1 NREC =        11 INTLOC =14612
 II,JST,KST,LST = 16  1  1  1 NREC =        13 INTLOC = 9539
 SCHWARZ INEQUALITY TEST SKIPPED           6 INTEGRAL BLOCKS.
 TOTAL NUMBER OF NONZERO TWO-ELECTRON INTEGRALS =              216629
         15 INTEGRAL RECORDS WERE STORED ON DISK FILE  8.
  ...... END OF TWO-ELECTRON INTEGRALS .....
 STEP CPU TIME =     0.06 TOTAL CPU TIME =          0.1 (      0.0 MIN)
 TOTAL WALL CLOCK TIME=          0.1 SECONDS, CPU UTILIZATION IS    86.08%

          --------------------------
            R-BHHLYP SCF CALCULATION
          --------------------------

     NUCLEAR ENERGY =        33.7856844727
     MAXIT =   30     NPUNCH=    2
     EXTRAP=T  DAMP=F  SHIFT=F  RSTRCT=F  DIIS=T  DEM=F  SOSCF=F
         DENSITY MATRIX CONVERGENCE THRESHOLD=  1.00E-05
     COARSE -> FINE DFT GRID SWITCH THRESHOLD=  3.00E-04 (SWITCH IN $DFT)
                   HF -> DFT SWITCH THRESHOLD=  5.00E-03 (SWOFF IN $DFT)
     MEMORY REQUIRED FOR RHF ITERS=    266475 WORDS.

 DFT CODE IS SWITCHING FROM THE FINE GRID NRAD= 96,  NLEB=  302
                      TO THE COARSE GRID NRAD0= 24, NLEB0=  110

     EXCHANGE FUNCTIONAL   =B88&HFX   
     CORRELATION FUNCTIONAL=LYP88     
     DFT THRESHOLD         =.230E-07
     GRID CHANGE THRESHOLD =.300E-03
 FOR AN EULER-MACLAURIN QUADRATURE USING  96 RADIAL POINTS:
 SMALLEST GAUSSIAN PRIMITIVE EXPONENT=        0.1612777588 OF TYPE -S-
 ON ATOM NUMBER   3 HAS RADIAL NORMALIZATION=  1.000000
  LARGEST GAUSSIAN PRIMITIVE EXPONENT=     3047.5248800000 OF TYPE -S-
 ON ATOM NUMBER   1 HAS RADIAL NORMALIZATION=  1.000000
 DFT IS SWITCHED OFF, PERFORMING PURE SCF UNTIL SWOFF THRESHOLD IS REACHED.

 ITER EX DEM     TOTAL ENERGY        E CHANGE  DENSITY CHANGE    DIIS ERROR
          * * *   INITIATING DIIS PROCEDURE   * * *
   1  0  0      -77.8523173930   -77.8523173930   0.120758605   0.481110076
   2  1  0      -78.0207201652    -0.1684027722   0.058297120   0.105637425
   3  2  0      -78.0295614625    -0.0088412973   0.013868105   0.025186831
   4  3  0      -78.0306585305    -0.0010970680   0.005758840   0.008477311
   5  4  0      -78.0307426963    -0.0000841658   0.000402916   0.000517780
 CONVERGED TO SWOFF, SO DFT CALCULATION IS NOW SWITCHED ON.
          * * *   INITIATING DIIS PROCEDURE   * * *
   6  5  0      -78.5251284638    -0.4943857675   0.034379227   0.067765933
   7  6  0      -78.5283041353    -0.0031756715   0.013606166   0.014349485
   8  7  0      -78.5285738732    -0.0002697379   0.004955546   0.009524597
   9  8  0      -78.5287188442    -0.0001449710   0.000209823   0.000343999
 DFT CODE IS SWITCHING BACK TO THE FINE GRID
          * * *   INITIATING DIIS PROCEDURE   * * *
  10  9  0      -78.5289693599    -0.0002505157   0.000260247   0.000636799
  11 10  0      -78.5289698845    -0.0000005246   0.000126853   0.000127741
  12 11  0      -78.5289699045    -0.0000000200   0.000032024   0.000068238
  13 12  0      -78.5289699113    -0.0000000068   0.000008484   0.000012063
  14 13  0      -78.5289699115    -0.0000000002   0.000000965   0.000001111

          -----------------
          DENSITY CONVERGED
          -----------------
     TIME TO FORM FOCK OPERATORS=       3.0 SECONDS (       0.2 SEC/ITER)
     TIME TO SOLVE SCF EQUATIONS=       0.0 SECONDS (       0.0 SEC/ITER)

 FINAL R-BHHLYP ENERGY IS      -78.5289699115 AFTER  14 ITERATIONS
 DFT EXCHANGE + CORRELATION ENERGY =        -6.3842622599
 TOTAL ELECTRON NUMBER             =        15.9999431710

          ------------
          EIGENVECTORS
          ------------

                      1          2          3          4          5
                  -10.5836   -10.5822    -0.8725    -0.6591    -0.5472
                     A          A          A          A          A   
    1  C  1  S    0.702706  -0.702808  -0.160228   0.122225   0.000001
    2  C  1  S    0.028508  -0.029231   0.306365  -0.242800  -0.000000
    3  C  1  X    0.000201   0.000269  -0.108713  -0.170985   0.000002
    4  C  1  Y    0.000000  -0.000000   0.000000  -0.000002   0.327885
    5  C  1  Z    0.000001  -0.000002   0.000197  -0.000363  -0.000207
    6  C  1  S   -0.005802   0.012643   0.226723  -0.232473  -0.000004
    7  C  1  X   -0.000648  -0.002198  -0.006513  -0.068595  -0.000001
    8  C  1  Y   -0.000000   0.000000   0.000003  -0.000002   0.122752
    9  C  1  Z   -0.000004   0.000005   0.000058  -0.000123  -0.000063
   10  C  1 XX   -0.004555   0.004221   0.010750   0.006569   0.000000
   11  C  1 YY   -0.004788   0.004445   0.002101  -0.018565   0.000000
   12  C  1 ZZ   -0.004991   0.004826  -0.015804   0.011386   0.000000
   13  C  1 XY    0.000000  -0.000000   0.000000  -0.000000   0.007702
   14  C  1 XZ    0.000000  -0.000000   0.000014  -0.000051  -0.000025
   15  C  1 YZ   -0.000000   0.000000  -0.000024   0.000039   0.000089
   16  C  2  S    0.702360   0.703154  -0.160229  -0.122225  -0.000000
   17  C  2  S    0.028494   0.029245   0.306361   0.242801  -0.000000
   18  C  2  X   -0.000201   0.000269   0.108712  -0.170985  -0.000003
   19  C  2  Y    0.000000   0.000000   0.000000  -0.000000   0.327887
   20  C  2  Z   -0.000000  -0.000001  -0.000021  -0.000040   0.000224
   21  C  2  S   -0.005793  -0.012646   0.226773   0.232467   0.000003
   22  C  2  X    0.000650  -0.002198   0.006528  -0.068594  -0.000003
   23  C  2  Y    0.000000  -0.000000  -0.000003  -0.000002   0.122772
   24  C  2  Z    0.000001   0.000000   0.000001   0.000009   0.000070
   25  C  2 XX   -0.004553  -0.004223   0.010749  -0.006570  -0.000000
   26  C  2 YY   -0.004786  -0.004447   0.002101   0.018565   0.000000
   27  C  2 ZZ   -0.004989  -0.004828  -0.015806  -0.011386  -0.000000
   28  C  2 XY    0.000000  -0.000000   0.000000   0.000000  -0.007703
   29  C  2 XZ    0.000000  -0.000001  -0.000008  -0.000013  -0.000026
   30  C  2 YZ    0.000000   0.000000   0.000026   0.000041   0.000002
   31  H  3  S   -0.000230  -0.000136   0.083293   0.146600  -0.155826
   32  H  3  S    0.001534   0.001575   0.016706   0.067311  -0.105591
   33  H  4  S   -0.000230  -0.000136   0.083293   0.146600   0.155828
   34  H  4  S    0.001534   0.001575   0.016709   0.067314   0.105589
   35  H  5  S   -0.000230   0.000136   0.083293  -0.146601   0.155827
   36  H  5  S    0.001535  -0.001574   0.016713  -0.067309   0.105601
   37  H  6  S   -0.000230   0.000136   0.083293  -0.146600  -0.155826
   38  H  6  S    0.001535  -0.001574   0.016716  -0.067311  -0.105597

                      6          7          8          9         10
                   -0.4814    -0.4180    -0.3173     0.0787     0.1656
                     A          A          A          A          A   
    1  C  1  S   -0.012813  -0.000000   0.000185  -0.000325  -0.080499
    2  C  1  S    0.028380   0.000001  -0.000398   0.000536   0.110472
    3  C  1  X   -0.414409   0.000001  -0.000548   0.000618   0.162416
    4  C  1  Y    0.000001   0.309367   0.000928  -0.000580   0.000001
    5  C  1  Z   -0.000479  -0.001033   0.392602  -0.387654   0.000805
    6  C  1  S   -0.009235  -0.000004  -0.000511   0.002620   1.404796
    7  C  1  X   -0.147479  -0.000002  -0.000510   0.001593   0.590386
    8  C  1  Y   -0.000005   0.147690   0.000615  -0.001125   0.000001
    9  C  1  Z   -0.000210  -0.000547   0.289119  -0.687425   0.002959
   10  C  1 XX    0.008811   0.000000  -0.000003  -0.000028   0.004301
   11  C  1 YY   -0.023029   0.000000  -0.000018  -0.000030  -0.013794
   12  C  1 ZZ    0.000045  -0.000000   0.000043  -0.000022  -0.003677
   13  C  1 XY   -0.000000   0.032818   0.000089   0.000060  -0.000000
   14  C  1 XZ   -0.000049   0.000022  -0.020409  -0.024580   0.000050
   15  C  1 YZ    0.000026   0.000094   0.000000   0.000000  -0.000016
   16  C  2  S   -0.012814   0.000000  -0.000071   0.000030  -0.080516
   17  C  2  S    0.028376   0.000001   0.000182  -0.000172   0.110462
   18  C  2  X    0.414412  -0.000001   0.000491  -0.000102  -0.162434
   19  C  2  Y    0.000002  -0.309365  -0.000949  -0.000601   0.000000
   20  C  2  Z   -0.000355  -0.001049   0.392600   0.387657  -0.000262
   21  C  2  S   -0.009195  -0.000004  -0.000114   0.000939   1.405228
   22  C  2  X    0.147498   0.000002   0.000095   0.000354  -0.590309
   23  C  2  Y    0.000007  -0.147686  -0.000630  -0.001170   0.000003
   24  C  2  Z   -0.000138  -0.000555   0.289119   0.687428  -0.001267
   25  C  2 XX    0.008812   0.000000   0.000012  -0.000000   0.004295
   26  C  2 YY   -0.023030  -0.000000  -0.000007  -0.000019  -0.013799
   27  C  2 ZZ    0.000044   0.000000  -0.000021   0.000011  -0.003682
   28  C  2 XY   -0.000000   0.032817   0.000088  -0.000059  -0.000000
   29  C  2 XZ   -0.000035  -0.000020   0.020409  -0.024579   0.000046
   30  C  2 YZ   -0.000027  -0.000002  -0.000000   0.000000   0.000015
   31  H  3  S   -0.124120   0.194819   0.000371  -0.000265  -0.033120
   32  H  3  S   -0.106841   0.178511   0.000393  -0.001076  -0.980949
   33  H  4  S   -0.124118  -0.194818  -0.000486   0.000257  -0.033120
   34  H  4  S   -0.106846  -0.178506  -0.000610   0.000953  -0.980957
   35  H  5  S   -0.124117   0.194819   0.000468  -0.000222  -0.033117
   36  H  5  S   -0.106838   0.178510   0.000481  -0.000668  -0.980815
   37  H  6  S   -0.124119  -0.194820  -0.000389  -0.000744  -0.033117
   38  H  6  S   -0.106846  -0.178506  -0.000522  -0.002686  -0.980816

                     11         12         13         14         15
                    0.1928     0.2140     0.2951     0.3839     0.5329
                     A          A          A          A          A   
    1  C  1  S   -0.000001  -0.110168  -0.000001  -0.066788   0.021190
    2  C  1  S    0.000002   0.133808   0.000001   0.016230   0.165140
    3  C  1  X    0.000001   0.117983  -0.000001  -0.153313  -0.545978
    4  C  1  Y   -0.284719   0.000003   0.288135  -0.000004   0.000000
    5  C  1  Z    0.000679   0.000864  -0.000466  -0.000604   0.000102
    6  C  1  S    0.000012   1.925585   0.000041   3.173068   0.251242
    7  C  1  X   -0.000003   0.097670  -0.000008  -2.900251   1.038810
    8  C  1  Y   -0.771709   0.000002   1.838411  -0.000015   0.000004
    9  C  1  Z    0.002412   0.002950  -0.001047  -0.000393   0.000413
   10  C  1 XX    0.000000  -0.005894   0.000000  -0.007708   0.067474
   11  C  1 YY   -0.000000  -0.001055   0.000000   0.026569  -0.039467
   12  C  1 ZZ    0.000000  -0.010442  -0.000000  -0.013252  -0.000431
   13  C  1 XY    0.023664  -0.000001   0.017352   0.000000  -0.000000
   14  C  1 XZ    0.000033   0.000023   0.000022   0.000011  -0.000036
   15  C  1 YZ    0.000010   0.000024   0.000005  -0.000087   0.000037
   16  C  2  S    0.000001   0.110158   0.000001   0.066787   0.021185
   17  C  2  S   -0.000002  -0.133784  -0.000002  -0.016193   0.165148
   18  C  2  X    0.000002   0.117958   0.000001  -0.153273   0.545998
   19  C  2  Y   -0.284715   0.000006  -0.288134   0.000002  -0.000000
   20  C  2  Z   -0.000695  -0.000235  -0.000484  -0.000031  -0.000072
   21  C  2  S   -0.000019  -1.925439  -0.000022  -3.173037   0.251439
   22  C  2  X   -0.000001   0.097613  -0.000016  -2.900341  -1.038620
   23  C  2  Y   -0.771802   0.000018  -1.838387   0.000012  -0.000001
   24  C  2  Z   -0.002453  -0.001258  -0.001145   0.001885  -0.000092
   25  C  2 XX    0.000000   0.005897  -0.000000   0.007709   0.067462
   26  C  2 YY    0.000000   0.001055   0.000000  -0.026572  -0.039465
   27  C  2 ZZ   -0.000000   0.010444   0.000000   0.013248  -0.000433
   28  C  2 XY   -0.023662   0.000001   0.017350  -0.000001   0.000000
   29  C  2 XZ    0.000032   0.000057  -0.000021  -0.000068  -0.000011
   30  C  2 YZ    0.000047   0.000023  -0.000070  -0.000090  -0.000040
   31  H  3  S   -0.054451   0.038754   0.029219  -0.096825  -0.102021
   32  H  3  S   -1.064201   1.044078  -1.594859  -0.510199  -0.056940
   33  H  4  S    0.054453   0.038751  -0.029219  -0.096823  -0.102021
   34  H  4  S    1.064219   1.044040   1.594862  -0.510224  -0.056940
   35  H  5  S    0.054449  -0.038754   0.029217   0.096813  -0.102034
   36  H  5  S    1.064144  -1.044180  -1.594895   0.510206  -0.056979
   37  H  6  S   -0.054450  -0.038752  -0.029213   0.096814  -0.102034
   38  H  6  S   -1.064157  -1.044169   1.594867   0.510177  -0.056975

                     16         17         18         19         20
                    0.6215     0.6540     0.7168     0.7263     0.8103
                     A          A          A          A          A   
    1  C  1  S    0.000056  -0.000001  -0.040102  -0.000154  -0.096764
    2  C  1  S   -0.000973  -0.000013  -0.744046  -0.000627  -0.037337
    3  C  1  X   -0.000356  -0.000001   0.061721   0.000431  -0.620967
    4  C  1  Y    0.001017  -0.400008   0.000008  -0.000568   0.000009
    5  C  1  Z    0.728964  -0.000383   0.001193  -0.801121   0.000363
    6  C  1  S    0.001365   0.000034   1.352490   0.002215   1.068601
    7  C  1  X   -0.001733   0.000005   0.235018   0.000959   0.326105
    8  C  1  Y   -0.000783   0.833244  -0.000012   0.000284  -0.000015
    9  C  1  Z   -0.645738  -0.001105   0.000358   1.124965   0.001407
   10  C  1 XX   -0.000241  -0.000002  -0.084057  -0.000034  -0.177836
   11  C  1 YY    0.000029  -0.000002  -0.149763  -0.000333  -0.048053
   12  C  1 ZZ   -0.000062   0.000001   0.053469   0.000224   0.092951
   13  C  1 XY    0.000043  -0.097498   0.000002   0.000181  -0.000001
   14  C  1 XZ   -0.062037   0.000013  -0.000040  -0.027880  -0.000097
   15  C  1 YZ   -0.000000  -0.000375   0.000189   0.000001   0.000280
   16  C  2  S    0.000003  -0.000000  -0.040105  -0.000056   0.096763
   17  C  2  S   -0.000311  -0.000009  -0.744113  -0.001116   0.037310
   18  C  2  X   -0.000052  -0.000004  -0.061703   0.000258  -0.620967
   19  C  2  Y   -0.001058  -0.400003   0.000004  -0.000616   0.000002
   20  C  2  Z    0.728965   0.000358  -0.001725   0.801121  -0.000036
   21  C  2  S   -0.000838   0.000009   1.352719   0.002095  -1.068557
   22  C  2  X   -0.001517  -0.000002  -0.234989  -0.000422   0.326094
   23  C  2  Y    0.000822   0.833258  -0.000010   0.000362  -0.000001
   24  C  2  Z   -0.645735   0.001153   0.001287  -1.124961  -0.000595
   25  C  2 XX    0.000074  -0.000001  -0.084064  -0.000195   0.177835
   26  C  2 YY   -0.000070  -0.000002  -0.149770  -0.000196   0.048048
   27  C  2 ZZ   -0.000041   0.000001   0.053469   0.000119  -0.092947
   28  C  2 XY    0.000040   0.097496  -0.000001  -0.000180   0.000001
   29  C  2 XZ    0.062037   0.000018   0.000234  -0.027879   0.000051
   30  C  2 YZ   -0.000000  -0.000095  -0.000201  -0.000000   0.000288
   31  H  3  S   -0.000195   0.391361  -0.404571  -0.000899   0.371550
   32  H  3  S   -0.000994   0.130643  -0.163412   0.000075   0.072237
   33  H  4  S   -0.000316  -0.391371  -0.404561  -0.000077   0.371547
   34  H  4  S    0.000178  -0.130643  -0.163407  -0.000400   0.072245
   35  H  5  S    0.000318  -0.391377  -0.404546  -0.000695  -0.371567
   36  H  5  S    0.000371  -0.130629  -0.163387  -0.000927  -0.072237
   37  H  6  S    0.000200   0.391364  -0.404561  -0.001518  -0.371568
   38  H  6  S    0.001546   0.130617  -0.163387  -0.000466  -0.072250

                     21         22         23         24         25
                    0.9361     0.9794     1.0282     1.0287     1.1969
                     A          A          A          A          A   
    1  C  1  S   -0.000001   0.000001   0.023751   0.015641  -0.030377
    2  C  1  S    0.000015  -0.000010  -0.408868  -0.989849  -1.532178
    3  C  1  X    0.000003  -0.000011  -0.601814  -0.351564   0.255504
    4  C  1  Y   -0.680805   0.912663  -0.000033  -0.000005  -0.000004
    5  C  1  Z    0.001053  -0.001027  -0.001250  -0.001092  -0.000389
    6  C  1  S   -0.000026   0.000009   0.251180   1.848035   5.877733
    7  C  1  X   -0.000004   0.000015   1.380205   0.496783  -2.057740
    8  C  1  Y    1.158752  -2.917342   0.000095   0.000029  -0.000005
    9  C  1  Z   -0.002148   0.002109   0.002038   0.001943   0.002359
   10  C  1 XX    0.000001  -0.000002  -0.129086  -0.105004   0.046860
   11  C  1 YY   -0.000000   0.000003   0.115971   0.052219  -0.192343
   12  C  1 ZZ    0.000001  -0.000004  -0.084174  -0.094995  -0.049679
   13  C  1 XY    0.173623  -0.000058   0.000003   0.000001   0.000002
   14  C  1 XZ   -0.000014   0.000034   0.000349   0.000292  -0.000252
   15  C  1 YZ    0.000154   0.000402  -0.000206  -0.000250   0.000438
   16  C  2  S    0.000001  -0.000001  -0.023860   0.015473   0.030374
   17  C  2  S   -0.000001   0.000018   0.415734  -0.987180   1.532032
   18  C  2  X   -0.000000  -0.000014  -0.604241   0.347332   0.255545
   19  C  2  Y   -0.680729  -0.912726   0.000018  -0.000004   0.000001
   20  C  2  Z   -0.001089  -0.001079   0.000409   0.000050  -0.000233
   21  C  2  S    0.000001  -0.000032  -0.264014   1.846968  -5.877415
   22  C  2  X    0.000002   0.000022   1.383612  -0.486924  -2.057821
   23  C  2  Y    1.158510   2.917442  -0.000070  -0.000014   0.000012
   24  C  2  Z    0.002211   0.002271  -0.000853  -0.000124   0.000445
   25  C  2 XX    0.000001   0.000003   0.129817  -0.104101  -0.046886
   26  C  2 YY    0.000001  -0.000002  -0.116335   0.051387   0.192338
   27  C  2 ZZ   -0.000001   0.000003   0.084841  -0.094415   0.049676
   28  C  2 XY   -0.173626  -0.000068  -0.000003  -0.000003   0.000000
   29  C  2 XZ   -0.000023  -0.000033  -0.000289  -0.000230   0.000233
   30  C  2 YZ   -0.000043   0.000304  -0.000220   0.000257   0.000447
   31  H  3  S   -0.386699  -0.201799  -0.481895   0.427371   0.099098
   32  H  3  S    1.117601   1.553194   1.026738  -0.903669   0.383037
   33  H  4  S    0.386709   0.201771  -0.481897   0.427392   0.099088
   34  H  4  S   -1.117606  -1.553141   1.026802  -0.903678   0.383034
   35  H  5  S    0.386704  -0.201738   0.478916   0.430729  -0.099043
   36  H  5  S   -1.117706   1.553056  -1.020520  -0.910755  -0.383186
   37  H  6  S   -0.386721   0.201763   0.478897   0.430740  -0.099060
   38  H  6  S    1.117733  -1.553089  -1.020409  -0.910737  -0.383173

                     26         27         28         29         30
                    1.3622     1.5704     1.6324     1.9444     2.0052
                     A          A          A          A          A   
    1  C  1  S    0.000001  -0.000062   0.000069  -0.000411   0.034890
    2  C  1  S    0.000011  -0.000216   0.001075  -0.002387   0.183439
    3  C  1  X   -0.000007   0.000240   0.000018   0.001001  -0.099290
    4  C  1  Y    0.095783   0.000638  -0.002076  -0.002223  -0.000039
    5  C  1  Z   -0.001127   0.189426  -0.000024   0.000004  -0.000328
    6  C  1  S   -0.000071   0.001877  -0.004274   0.008151  -0.613473
    7  C  1  X    0.000015  -0.001121   0.000600   0.002684  -0.174257
    8  C  1  Y   -2.982949  -0.016057   0.026403   0.010262   0.000101
    9  C  1  Z    0.001925  -0.044293  -0.000014   0.000019  -0.001500
   10  C  1 XX   -0.000004   0.000502  -0.000023   0.000937  -0.106744
   11  C  1 YY    0.000020  -0.001455   0.000877   0.008310  -0.528064
   12  C  1 ZZ   -0.000016   0.000839  -0.000808  -0.009884   0.708571
   13  C  1 XY    0.167153   0.001170  -0.002998  -0.006192  -0.000105
   14  C  1 XZ   -0.002625   0.616685  -0.000092  -0.000006  -0.000082
   15  C  1 YZ    0.005733   0.000135   0.678433   0.739603   0.010973
   16  C  2  S   -0.000001   0.000046  -0.000069  -0.000411   0.034889
   17  C  2  S   -0.000034   0.000587  -0.001075  -0.002386   0.183414
   18  C  2  X    0.000002   0.000015   0.000018  -0.001001   0.099299
   19  C  2  Y   -0.095810  -0.000648   0.000748  -0.001312  -0.000029
   20  C  2  Z   -0.001133   0.189425  -0.000025   0.000001  -0.000177
   21  C  2  S    0.000105  -0.002807   0.004274   0.008148  -0.613366
   22  C  2  X    0.000006  -0.000693   0.000600  -0.002684   0.174282
   23  C  2  Y    2.982987   0.016060  -0.025248  -0.012613  -0.000150
   24  C  2  Z    0.002087  -0.044292  -0.000009  -0.000021   0.000725
   25  C  2 XX    0.000001  -0.000369   0.000022   0.000937  -0.106732
   26  C  2 YY   -0.000001  -0.000208  -0.000940   0.008379  -0.528061
   27  C  2 ZZ   -0.000003   0.000600   0.000872  -0.009952   0.708558
   28  C  2 XY    0.167181   0.001203  -0.000355   0.002789   0.000063
   29  C  2 XZ    0.002635  -0.616685   0.000092  -0.000015   0.001608
   30  C  2 YZ    0.002342   0.000101   0.678491  -0.739588  -0.011050
   31  H  3  S    0.707980   0.003761  -0.005674  -0.009450   0.363845
   32  H  3  S    0.866774   0.005362  -0.009022  -0.005269   0.105079
   33  H  4  S   -0.707982  -0.003224   0.004793   0.000263   0.364004
   34  H  4  S   -0.866822  -0.004918   0.007745   0.002068   0.105151
   35  H  5  S    0.708004   0.002916  -0.004134  -0.003956   0.363958
   36  H  5  S    0.866768   0.005524  -0.009054  -0.006059   0.105078
   37  H  6  S   -0.707982  -0.004070   0.005015  -0.005231   0.363894
   38  H  6  S   -0.866754  -0.004755   0.010330   0.002857   0.105182

                     31         32         33         34         35
                    2.1090     2.2333     2.4525     2.5276     2.8050
                     A          A          A          A          A   
    1  C  1  S   -0.000002  -0.032592  -0.049103  -0.000324  -0.000001
    2  C  1  S   -0.000017  -0.371104  -0.284574  -0.001053  -0.000001
    3  C  1  X    0.000005   0.268317   0.079131   0.000346   0.000003
    4  C  1  Y   -0.262437   0.000000   0.000007  -0.000320  -0.089732
    5  C  1  Z    0.000203  -0.000348   0.001071  -0.141508  -0.000172
    6  C  1  S    0.000048   0.257195   1.673764   0.009675   0.000017
    7  C  1  X   -0.000003  -0.440741  -0.446430  -0.002849   0.000001
    8  C  1  Y   -0.240564   0.000006   0.000008  -0.000036   0.561025
    9  C  1  Z    0.001107  -0.000241   0.002867  -0.276678  -0.000386
   10  C  1 XX    0.000009   0.617287  -0.012029   0.000218  -0.000002
   11  C  1 YY    0.000011  -0.576661   0.671044   0.004128   0.000012
   12  C  1 ZZ   -0.000026  -0.303874  -0.728447  -0.004933  -0.000012
   13  C  1 XY   -0.686655   0.000002   0.000001  -0.000572   0.978472
   14  C  1 XZ   -0.000598  -0.000166  -0.004522   0.921205  -0.000445
   15  C  1 YZ   -0.006930   0.000905  -0.001050  -0.000012   0.001943
   16  C  2  S   -0.000001  -0.032592   0.049104   0.000283   0.000000
   17  C  2  S   -0.000004  -0.371103   0.284559   0.001794   0.000004
   18  C  2  X   -0.000007  -0.268307   0.079129   0.000543   0.000002
   19  C  2  Y   -0.262438   0.000001   0.000005  -0.000328   0.089730
   20  C  2  Z   -0.000217   0.000115  -0.000625   0.141511  -0.000167
   21  C  2  S    0.000000   0.257184  -1.673758  -0.009826  -0.000013
   22  C  2  X   -0.000007   0.440729  -0.446419  -0.003247  -0.000002
   23  C  2  Y   -0.240508  -0.000004  -0.000003  -0.000052  -0.561026
   24  C  2  Z   -0.001119   0.000170  -0.001866   0.276684  -0.000416
   25  C  2 XX    0.000009   0.617302   0.012035   0.000256   0.000001
   26  C  2 YY    0.000002  -0.576652  -0.671068  -0.002947  -0.000006
   27  C  2 ZZ   -0.000017  -0.303886   0.728464   0.003162   0.000006
   28  C  2 XY    0.686675  -0.000004  -0.000020   0.000522   0.978476
   29  C  2 XZ   -0.000561   0.000345  -0.005162   0.921200   0.000498
   30  C  2 YZ    0.003620  -0.000922  -0.001137  -0.000003  -0.000768
   31  H  3  S   -0.507179   0.177148   0.450844   0.001461  -0.454650
   32  H  3  S    0.059136  -0.073673  -0.009012   0.000227  -0.052118
   33  H  4  S    0.507161   0.177146   0.450820   0.002846   0.454657
   34  H  4  S   -0.059139  -0.073670  -0.008999  -0.000508   0.052119
   35  H  5  S    0.507169   0.177148  -0.450822  -0.002671  -0.454659
   36  H  5  S   -0.059128  -0.073671   0.008998   0.000285  -0.052120
   37  H  6  S   -0.507198   0.177156  -0.450808  -0.004056   0.454643
   38  H  6  S    0.059116  -0.073670   0.008998   0.001022   0.052117

                     36         37         38
                    2.8607     4.2570     4.3971
                     A          A          A   
    1  C  1  S    0.058130  -0.328162  -0.342874
    2  C  1  S   -0.390060   2.242801   1.991528
    3  C  1  X    0.870801  -0.110026   0.388916
    4  C  1  Y   -0.000000  -0.000001  -0.000001
    5  C  1  Z   -0.000382  -0.000166  -0.000371
    6  C  1  S   -2.051124   0.934705   2.009016
    7  C  1  X    1.181231   0.116998  -0.238650
    8  C  1  Y    0.000001  -0.000000   0.000005
    9  C  1  Z   -0.000229   0.000650   0.000981
   10  C  1 XX   -1.145519  -1.255576  -1.712633
   11  C  1 YY    0.569579  -1.302370  -1.285502
   12  C  1 ZZ    0.546669  -1.277204  -1.250788
   13  C  1 XY   -0.000001  -0.000001  -0.000001
   14  C  1 XZ    0.000868  -0.000171   0.000092
   15  C  1 YZ   -0.000037   0.000104  -0.000017
   16  C  2  S   -0.058129  -0.328186   0.342851
   17  C  2  S    0.390056   2.242939  -1.991370
   18  C  2  X    0.870804   0.109998   0.388925
   19  C  2  Y    0.000000  -0.000000   0.000000
   20  C  2  Z   -0.000313  -0.000069  -0.000182
   21  C  2  S    2.051131   0.934864  -2.008945
   22  C  2  X    1.181220  -0.116964  -0.238665
   23  C  2  Y   -0.000001  -0.000000  -0.000003
   24  C  2  Z   -0.000495  -0.000101  -0.000069
   25  C  2 XX    1.145516  -1.255694   1.712544
   26  C  2 YY   -0.569567  -1.302463   1.285414
   27  C  2 ZZ   -0.546670  -1.277291   1.250698
   28  C  2 XY   -0.000001  -0.000000  -0.000000
   29  C  2 XZ   -0.000694  -0.000103  -0.000294
   30  C  2 YZ   -0.000038  -0.000106  -0.000015
   31  H  3  S    0.023334   0.129979  -0.107664
   32  H  3  S    0.052653  -0.301958   0.347792
   33  H  4  S    0.023333   0.129979  -0.107663
   34  H  4  S    0.052655  -0.301958   0.347794
   35  H  5  S   -0.023338   0.129972   0.107671
   36  H  5  S   -0.052658  -0.301938  -0.347821
   37  H  6  S   -0.023340   0.129969   0.107669
   38  H  6  S   -0.052655  -0.301938  -0.347813
 ...... END OF RHF CALCULATION ......
 STEP CPU TIME =     3.05 TOTAL CPU TIME =          3.1 (      0.1 MIN)
 TOTAL WALL CLOCK TIME=          3.2 SECONDS, CPU UTILIZATION IS    96.13%

     ---------------------------------------------------------------------
     PROPERTIES FOR THE BHHLYP   DFT FUNCTIONAL (RHF  TYPE) DENSITY MATRIX
     ---------------------------------------------------------------------

          -----------------
          ENERGY COMPONENTS
          -----------------

         WAVEFUNCTION NORMALIZATION =       1.0000000000

                ONE ELECTRON ENERGY =    -171.1134726397
                TWO ELECTRON ENERGY =      58.7988182556
           NUCLEAR REPULSION ENERGY =      33.7856844727
                                      ------------------
                       TOTAL ENERGY =     -78.5289699115

 ELECTRON-ELECTRON POTENTIAL ENERGY =      58.7988182556
  NUCLEUS-ELECTRON POTENTIAL ENERGY =    -249.0705822899
   NUCLEUS-NUCLEUS POTENTIAL ENERGY =      33.7856844727
                                      ------------------
             TOTAL POTENTIAL ENERGY =    -156.4860795616
               TOTAL KINETIC ENERGY =      77.9571096502
                 VIRIAL RATIO (V/T) =       2.0073355755

          ---------------------------------------
          MULLIKEN AND LOWDIN POPULATION ANALYSES
          ---------------------------------------

     ATOMIC MULLIKEN POPULATION IN EACH MOLECULAR ORBITAL

                      1          2          3          4          5

                  2.000000   2.000000   2.000000   2.000000   2.000000

    1             1.000000   0.999155   0.877544   0.645553   0.608156
    2             0.999019   1.000138   0.877628   0.645544   0.608193
    3             0.000245   0.000177   0.061202   0.177225   0.195910
    4             0.000245   0.000177   0.061206   0.177227   0.195912
    5             0.000245   0.000177   0.061209   0.177226   0.195917
    6             0.000245   0.000177   0.061212   0.177225   0.195913

                      6          7          8

                  2.000000   2.000000   2.000000

    1             0.735192   0.451277   1.000000
    2             0.735204   0.451266   0.999995
    3             0.132402   0.274365   0.000001
    4             0.132402   0.274360   0.000002
    5             0.132397   0.274366   0.000001
    6             0.132404   0.274366   0.000001

               ----- POPULATIONS IN EACH AO -----
                             MULLIKEN      LOWDIN
              1  C  1  S      1.99367     1.98054
              2  C  1  S      0.69196     0.36455
              3  C  1  X      0.77538     0.68874
              4  C  1  Y      0.73046     0.64417
              5  C  1  Z      0.53796     0.49712
              6  C  1  S      0.56647     0.33257
              7  C  1  X      0.22319     0.36930
              8  C  1  Y      0.31241     0.45568
              9  C  1  Z      0.45577     0.49227
             10  C  1 XX      0.00995     0.18013
             11  C  1 YY      0.02126     0.17273
             12  C  1 ZZ     -0.02443     0.10269
             13  C  1 XY      0.01656     0.03418
             14  C  1 XZ      0.00628     0.01061
             15  C  1 YZ      0.00000     0.00000
             16  C  2  S      1.99367     1.98054
             17  C  2  S      0.69196     0.36455
             18  C  2  X      0.77538     0.68875
             19  C  2  Y      0.73046     0.64417
             20  C  2  Z      0.53795     0.49712
             21  C  2  S      0.56653     0.33257
             22  C  2  X      0.22322     0.36930
             23  C  2  Y      0.31244     0.45568
             24  C  2  Z      0.45577     0.49227
             25  C  2 XX      0.00995     0.18013
             26  C  2 YY      0.02125     0.17273
             27  C  2 ZZ     -0.02443     0.10269
             28  C  2 XY      0.01656     0.03418
             29  C  2 XZ      0.00628     0.01061
             30  C  2 YZ      0.00000     0.00000
             31  H  3  S      0.52905     0.48387
             32  H  3  S      0.31248     0.35348
             33  H  4  S      0.52905     0.48387
             34  H  4  S      0.31248     0.35348
             35  H  5  S      0.52905     0.48387
             36  H  5  S      0.31249     0.35348
             37  H  6  S      0.52905     0.48387
             38  H  6  S      0.31249     0.35348

          ----- MULLIKEN ATOMIC OVERLAP POPULATIONS -----
          (OFF-DIAGONAL ELEMENTS NEED TO BE MULTIPLIED BY 2)

             1           2           3           4           5

    1    4.9447124
    2    0.6760216   4.9448321
    3   -0.0400476   0.3881112   0.5300987
    4   -0.0400476   0.3881159  -0.0336710   0.5300981
    5    0.3881169  -0.0400464   0.0047549  -0.0077199   0.5301050
    6    0.3881210  -0.0400462  -0.0077198   0.0047549  -0.0336734

             6

    6    0.5301048

          TOTAL MULLIKEN AND LOWDIN ATOMIC POPULATIONS
       ATOM         MULL.POP.    CHARGE          LOW.POP.     CHARGE
    1 C             6.316877   -0.316877         6.325291   -0.325291
    2 C             6.316988   -0.316988         6.325301   -0.325301
    3 H             0.841526    0.158474         0.837351    0.162649
    4 H             0.841530    0.158470         0.837351    0.162649
    5 H             0.841537    0.158463         0.837353    0.162647
    6 H             0.841541    0.158459         0.837353    0.162647

          -------------------------------
          BOND ORDER AND VALENCE ANALYSIS     BOND ORDER THRESHOLD=0.050
          -------------------------------

                   BOND                       BOND                       BOND
  ATOM PAIR DIST  ORDER      ATOM PAIR DIST  ORDER      ATOM PAIR DIST  ORDER
    1   2  1.310  2.019        1   5  1.080  0.949        1   6  1.080  0.949
    2   3  1.080  0.949        2   4  1.080  0.949

                       TOTAL       BONDED        FREE
      ATOM            VALENCE     VALENCE     VALENCE
    1 C                 3.893       3.893       0.000
    2 C                 3.893       3.893       0.000
    3 H                 0.938       0.938       0.000
    4 H                 0.938       0.938       0.000
    5 H                 0.938       0.938       0.000
    6 H                 0.938       0.938      -0.000

          ---------------------
          ELECTROSTATIC MOMENTS
          ---------------------

 POINT   1           X           Y           Z (BOHR)    CHARGE
                -1.237771    0.000000    0.000778        0.00 (A.U.)
         DX          DY          DZ         /D/  (DEBYE)
     0.000011    0.000003    0.003134    0.003134
 ...... END OF PROPERTY EVALUATION ......
 STEP CPU TIME =     0.00 TOTAL CPU TIME =          3.1 (      0.1 MIN)
 TOTAL WALL CLOCK TIME=          3.2 SECONDS, CPU UTILIZATION IS    96.13%

 BEGINNING ONE ELECTRON GRADIENT...
 ..... END OF 1-ELECTRON GRADIENT ......
 STEP CPU TIME =     0.00 TOTAL CPU TIME =          3.1 (      0.1 MIN)
 TOTAL WALL CLOCK TIME=          3.3 SECONDS, CPU UTILIZATION IS    96.14%

          ----------------------
          GRADIENT OF THE ENERGY
          ----------------------
 MEMORY FOR GRID POINT CONTRIBUTIONS TO THE DFT GRADIENT=    232095 WORDS.
 STEP CPU TIME =     1.07 TOTAL CPU TIME =          4.2 (      0.1 MIN)
 TOTAL WALL CLOCK TIME=          4.3 SECONDS, CPU UTILIZATION IS    97.02%

 THE MINIMUM MEMORY REQUIRED FOR THIS RUN IS      80435 WORDS.
 USING    1055955 WORDS FOR 2E- DERIVATIVE INTEGRAL CONTRIBUTIONS.
 THE COARSE/FINE SCHWARZ SCREENINGS SKIPPED            6/          70 BLOCKS.
 THE NUMBER OF GRADIENT INTEGRAL BLOCKS COMPUTED WAS      9106
 ...... END OF 2-ELECTRON GRADIENT ......
 STEP CPU TIME =     0.07 TOTAL CPU TIME =          4.3 (      0.1 MIN)
 TOTAL WALL CLOCK TIME=          4.4 SECONDS, CPU UTILIZATION IS    97.07%

          NSERCH=  0     ENERGY=     -78.5289699

                                 -----------------------
                                 GRADIENT (HARTREE/BOHR)
                                 -----------------------
        ATOM     ZNUC       DE/DX         DE/DY         DE/DZ
 --------------------------------------------------------------
    1  C            6.0    -0.0093522     0.0000023    -0.0003533
    2  C            6.0     0.0093501    -0.0000004     0.0000687
    3  H            1.0     0.0045541    -0.0041190    -0.0000878
    4  H            1.0     0.0045541     0.0041192     0.0001180
    5  H            1.0    -0.0045536     0.0041189     0.0000245
    6  H            1.0    -0.0045526    -0.0041211     0.0002299

          MAXIMUM GRADIENT = 0.0093522    RMS GRADIENT = 0.0042552

 NSERCH:   0  E=      -78.5289699115  GRAD. MAX=  0.0093522  R.M.S.=  0.0042552

          FORCE CONSTANT MATRIX NOT UPDATED --- TAKING FIRST STEP
          MIN SEARCH, CORRECT HESSIAN, TRYING PURE NR STEP
               NR STEP HAS LENGTH         =  58.679467
          TRIM/QA LAMBDA FOR NON-TS MODES =  -0.00243000
          TRIM/QA STEP HAS LENGTH         =   0.300000
          RADIUS OF STEP TAKEN=   0.30000  CURRENT TRUST RADIUS=   0.30000

 BEGINNING GEOMETRY SEARCH POINT NSERCH=   1 ...

 COORDINATES OF ALL ATOMS ARE (ANGS)
   ATOM   CHARGE       X              Y              Z
 ------------------------------------------------------------
 C           6.0   0.0007727455   0.0000919153   0.0756366960
 C           6.0  -1.3108252193   0.0000405284  -0.0135990096
 H           1.0  -1.9031952411  -0.9016785952   0.0180682950
 H           1.0  -1.9033097646   0.9016788270  -0.0230087417
 H           1.0   0.5932690892   0.9017512999  -0.0049622003
 H           1.0   0.5932883901  -0.9018839755  -0.0461350395

          INTERNUCLEAR DISTANCES (ANGS.)
          ------------------------------

                1 C          2 C          3 H          4 H          5 H     

   1 C       0.0000000    1.3146301 *  2.1075100 *  2.1090567 *  1.0819139 *
   2 C       1.3146301 *  0.0000000    1.0793528 *  1.0789245 *  2.1068299 *
   3 H       2.1075100 *  1.0793528 *  0.0000000    1.8038252 *  3.0798091  
   4 H       2.1090567 *  1.0789245 *  1.8038252 *  0.0000000    2.4966441 *
   5 H       1.0819139 *  2.1068299 *  3.0798091    2.4966441 *  0.0000000  
   6 H       1.0860311 *  2.1071723 *  2.4973091 *  3.0799961    1.8041052 *

                6 H     

   1 C       1.0860311 *
   2 C       2.1071723 *
   3 H       2.4973091 *
   4 H       3.0799961  
   5 H       1.8041052 *
   6 H       0.0000000  

  * ... LESS THAN  3.000

 ...... END OF ONE-ELECTRON INTEGRALS ......
 STEP CPU TIME =     0.00 TOTAL CPU TIME =          4.3 (      0.1 MIN)
 TOTAL WALL CLOCK TIME=          4.4 SECONDS, CPU UTILIZATION IS    97.07%
 TOTAL NUMBER OF NONZERO TWO-ELECTRON INTEGRALS =              261500
         18 INTEGRAL RECORDS WERE STORED ON DISK FILE  8.
  ...... END OF TWO-ELECTRON INTEGRALS .....
 STEP CPU TIME =     0.02 TOTAL CPU TIME =          4.3 (      0.1 MIN)
 TOTAL WALL CLOCK TIME=          4.4 SECONDS, CPU UTILIZATION IS    97.07%

          --------------------------
            R-BHHLYP SCF CALCULATION
          --------------------------
         DENSITY MATRIX CONVERGENCE THRESHOLD=  1.00E-05
     COARSE -> FINE DFT GRID SWITCH THRESHOLD=  3.00E-04 (SWITCH IN $DFT)
                   HF -> DFT SWITCH THRESHOLD=  5.00E-03 (SWOFF IN $DFT)

 DFT CODE IS SWITCHING FROM THE FINE GRID NRAD= 96,  NLEB=  302
                      TO THE COARSE GRID NRAD0= 24, NLEB0=  110

 ITER EX DEM     TOTAL ENERGY        E CHANGE  DENSITY CHANGE    DIIS ERROR
          * * *   INITIATING DIIS PROCEDURE   * * *
   1  0  0      -78.5236296220   -78.5236296220   0.021682151   0.033132465
   2  1  0      -78.5267850962    -0.0031554742   0.009938803   0.004544080
   3  2  0      -78.5268929525    -0.0001078563   0.002049486   0.001710087
   4  3  0      -78.5269035869    -0.0000106344   0.000864384   0.000805018
   5  4  0      -78.5269053282    -0.0000017413   0.000202048   0.000304348
 DFT CODE IS SWITCHING BACK TO THE FINE GRID
          * * *   INITIATING DIIS PROCEDURE   * * *
   6  5  0      -78.5271503493    -0.0002450211   0.000308140   0.000689450
   7  6  0      -78.5271508996    -0.0000005503   0.000169054   0.000143940
   8  7  0      -78.5271509234    -0.0000000238   0.000078715   0.000061789
   9  8  0      -78.5271509366    -0.0000000132   0.000016977   0.000023215
  10  9  0      -78.5271509374    -0.0000000007   0.000005303   0.000005420
  11 10  0      -78.5271509375    -0.0000000001   0.000000799   0.000000769

          -----------------
          DENSITY CONVERGED
          -----------------
     TIME TO FORM FOCK OPERATORS=       3.5 SECONDS (       0.3 SEC/ITER)
     TIME TO SOLVE SCF EQUATIONS=       0.0 SECONDS (       0.0 SEC/ITER)

 FINAL R-BHHLYP ENERGY IS      -78.5271509375 AFTER  11 ITERATIONS
 DFT EXCHANGE + CORRELATION ENERGY =        -6.3802701395
 TOTAL ELECTRON NUMBER             =        15.9999658264
 ...... END OF RHF CALCULATION ......
 STEP CPU TIME =     3.55 TOTAL CPU TIME =          7.8 (      0.1 MIN)
 TOTAL WALL CLOCK TIME=          8.0 SECONDS, CPU UTILIZATION IS    98.36%
 ..... END OF 1-ELECTRON GRADIENT ......
 STEP CPU TIME =     0.00 TOTAL CPU TIME =          7.8 (      0.1 MIN)
 TOTAL WALL CLOCK TIME=          8.0 SECONDS, CPU UTILIZATION IS    98.36%
 MEMORY FOR GRID POINT CONTRIBUTIONS TO THE DFT GRADIENT=    232095 WORDS.
 STEP CPU TIME =     0.87 TOTAL CPU TIME =          8.7 (      0.1 MIN)
 TOTAL WALL CLOCK TIME=          8.8 SECONDS, CPU UTILIZATION IS    98.52%
 ...... END OF 2-ELECTRON GRADIENT ......
 STEP CPU TIME =     0.07 TOTAL CPU TIME =          8.8 (      0.1 MIN)
 TOTAL WALL CLOCK TIME=          8.9 SECONDS, CPU UTILIZATION IS    98.53%

          NSERCH=  1     ENERGY=     -78.5271509

                                 -----------------------
                                 GRADIENT (HARTREE/BOHR)
                                 -----------------------
        ATOM     ZNUC       DE/DX         DE/DY         DE/DZ
 --------------------------------------------------------------
    1  C            6.0    -0.0163069     0.0019067     0.0227655
    2  C            6.0     0.0131515     0.0001012    -0.0102627
    3  H            1.0    -0.0034396     0.0027231     0.0033466
    4  H            1.0    -0.0032904    -0.0028870    -0.0002512
    5  H            1.0     0.0043630    -0.0017499    -0.0058515
    6  H            1.0     0.0055225    -0.0000941    -0.0097467

          MAXIMUM GRADIENT = 0.0227655    RMS GRADIENT = 0.0084906

 NSERCH:   1  E=      -78.5271509375  GRAD. MAX=  0.0227655  R.M.S.=  0.0084906

          HESSIAN UPDATED USING THE BFGS FORMULA
             ACTUAL ENERGY CHANGE WAS   0.0018189740
          PREDICTED ENERGY CHANGE WAS  -0.0016038960 RATIO= -1.134
          MIN SEARCH, CORRECT HESSIAN, TRYING PURE NR STEP
               NR STEP HAS LENGTH         = 921.466305
          TRIM/QA LAMBDA FOR NON-TS MODES =  -0.10324488
          TRIM/QA STEP HAS LENGTH         =   0.150000
          RADIUS OF STEP TAKEN=   0.15000  CURRENT TRUST RADIUS=   0.15000

 BEGINNING GEOMETRY SEARCH POINT NSERCH=   2 ...

 COORDINATES OF ALL ATOMS ARE (ANGS)
   ATOM   CHARGE       X              Y              Z
 ------------------------------------------------------------
 C           6.0   0.0063067320  -0.0005545699   0.0101221979
 C           6.0  -1.3146143494   0.0000238306   0.0163335592
 H           1.0  -1.9044801081  -0.9015747625   0.0091568526
 H           1.0  -1.9046588543   0.9016503423  -0.0215633323
 H           1.0   0.5938712999   0.9015463153   0.0113431057
 H           1.0   0.5935752800  -0.9010911558  -0.0193923832

          INTERNUCLEAR DISTANCES (ANGS.)
          ------------------------------

                1 C          2 C          3 H          4 H          5 H     

   1 C       0.0000000    1.3209358 *  2.1125683 *  2.1134728 *  1.0765777 *
   2 C       1.3209358 *  0.0000000    1.0774382 *  1.0782018 *  2.1107073 *
   3 H       2.1125683 *  1.0774382 *  0.0000000    1.8034868 *  3.0810729  
   4 H       2.1134728 *  1.0782018 *  1.8034868 *  0.0000000    2.4987468 *
   5 H       1.0765777 *  2.1107073 *  3.0810729    2.4987468 *  0.0000000  
   6 H       1.0755099 *  2.1105621 *  2.4982186 *  3.0807557    1.8028995 *

                6 H     

   1 C       1.0755099 *
   2 C       2.1105621 *
   3 H       2.4982186 *
   4 H       3.0807557  
   5 H       1.8028995 *
   6 H       0.0000000  

  * ... LESS THAN  3.000

 ...... END OF ONE-ELECTRON INTEGRALS ......
 STEP CPU TIME =     0.00 TOTAL CPU TIME =          8.8 (      0.1 MIN)
 TOTAL WALL CLOCK TIME=          8.9 SECONDS, CPU UTILIZATION IS    98.53%
 TOTAL NUMBER OF NONZERO TWO-ELECTRON INTEGRALS =              261349
         18 INTEGRAL RECORDS WERE STORED ON DISK FILE  8.
  ...... END OF TWO-ELECTRON INTEGRALS .....
 STEP CPU TIME =     0.02 TOTAL CPU TIME =          8.8 (      0.1 MIN)
 TOTAL WALL CLOCK TIME=          8.9 SECONDS, CPU UTILIZATION IS    98.53%

          --------------------------
            R-BHHLYP SCF CALCULATION
          --------------------------
         DENSITY MATRIX CONVERGENCE THRESHOLD=  5.00E-05
     COARSE -> FINE DFT GRID SWITCH THRESHOLD=  1.50E-03 (SWITCH IN $DFT)
                   HF -> DFT SWITCH THRESHOLD=  5.00E-03 (SWOFF IN $DFT)

 DFT CODE IS SWITCHING FROM THE FINE GRID NRAD= 96,  NLEB=  302
                      TO THE COARSE GRID NRAD0= 24, NLEB0=  110

 ITER EX DEM     TOTAL ENERGY        E CHANGE  DENSITY CHANGE    DIIS ERROR
          * * *   INITIATING DIIS PROCEDURE   * * *
   1  0  0      -78.5264039922   -78.5264039922   0.022521826   0.036594641
   2  1  0      -78.5290225710    -0.0026185788   0.009127289   0.005299387
   3  2  0      -78.5291134202    -0.0000908492   0.001994263   0.002228282
   4  3  0      -78.5291209328    -0.0000075126   0.000806065   0.001190156
 DFT CODE IS SWITCHING BACK TO THE FINE GRID
          * * *   INITIATING DIIS PROCEDURE   * * *
   5  4  0      -78.5293432797    -0.0002223469   0.000369468   0.000685856
   6  5  0      -78.5293439032    -0.0000006235   0.000213030   0.000165384
   7  6  0      -78.5293439445    -0.0000000413   0.000110206   0.000130089
   8  7  0      -78.5293439742    -0.0000000298   0.000026208   0.000027502
   9  8  0      -78.5293439757    -0.0000000014   0.000006975   0.000006837

          -----------------
          DENSITY CONVERGED
          -----------------
     TIME TO FORM FOCK OPERATORS=       3.0 SECONDS (       0.3 SEC/ITER)
     TIME TO SOLVE SCF EQUATIONS=       0.0 SECONDS (       0.0 SEC/ITER)

 FINAL R-BHHLYP ENERGY IS      -78.5293439757 AFTER   9 ITERATIONS
 DFT EXCHANGE + CORRELATION ENERGY =        -6.3815278939
 TOTAL ELECTRON NUMBER             =        15.9999459418
 ...... END OF RHF CALCULATION ......
 STEP CPU TIME =     3.06 TOTAL CPU TIME =         11.9 (      0.2 MIN)
 TOTAL WALL CLOCK TIME=         12.0 SECONDS, CPU UTILIZATION IS    98.89%
 ..... END OF 1-ELECTRON GRADIENT ......
 STEP CPU TIME =     0.00 TOTAL CPU TIME =         11.9 (      0.2 MIN)
 TOTAL WALL CLOCK TIME=         12.0 SECONDS, CPU UTILIZATION IS    98.89%
 MEMORY FOR GRID POINT CONTRIBUTIONS TO THE DFT GRADIENT=    232095 WORDS.
 STEP CPU TIME =     0.86 TOTAL CPU TIME =         12.7 (      0.2 MIN)
 TOTAL WALL CLOCK TIME=         12.9 SECONDS, CPU UTILIZATION IS    98.96%
 ...... END OF 2-ELECTRON GRADIENT ......
 STEP CPU TIME =     0.07 TOTAL CPU TIME =         12.8 (      0.2 MIN)
 TOTAL WALL CLOCK TIME=         12.9 SECONDS, CPU UTILIZATION IS    98.97%

          NSERCH=  2     ENERGY=     -78.5293440

                                 -----------------------
                                 GRADIENT (HARTREE/BOHR)
                                 -----------------------
        ATOM     ZNUC       DE/DX         DE/DY         DE/DZ
 --------------------------------------------------------------
    1  C            6.0    -0.0005147    -0.0008334     0.0011840
    2  C            6.0     0.0023094    -0.0002570     0.0036388
    3  H            1.0    -0.0028584     0.0036218    -0.0001977
    4  H            1.0    -0.0031652    -0.0032585    -0.0028854
    5  H            1.0     0.0023070    -0.0039581     0.0004501
    6  H            1.0     0.0019218     0.0046852    -0.0021898

          MAXIMUM GRADIENT = 0.0046852    RMS GRADIENT = 0.0026132

 NSERCH:   2  E=      -78.5293439757  GRAD. MAX=  0.0046852  R.M.S.=  0.0026132

          HESSIAN UPDATED USING THE BFGS FORMULA
             ACTUAL ENERGY CHANGE WAS  -0.0021930382
          PREDICTED ENERGY CHANGE WAS  -0.0033465023 RATIO=  0.655
          MIN SEARCH, CORRECT HESSIAN, TRYING PURE NR STEP
               NR STEP HAS LENGTH         = 900.134716
          TRIM/QA LAMBDA FOR NON-TS MODES =  -0.06725831
          TRIM/QA STEP HAS LENGTH         =   0.150000
          RADIUS OF STEP TAKEN=   0.15000  CURRENT TRUST RADIUS=   0.15000

 BEGINNING GEOMETRY SEARCH POINT NSERCH=   3 ...

 COORDINATES OF ALL ATOMS ARE (ANGS)
   ATOM   CHARGE       X              Y              Z
 ------------------------------------------------------------
 C           6.0   0.0093236555  -0.0003310969  -0.0003799224
 C           6.0  -1.3190457072   0.0000232651  -0.0116301248
 H           1.0  -1.8771588952  -0.9220760374   0.0105783607
 H           1.0  -1.8769475986   0.9218075491   0.0009094795
 H           1.0   0.5672796207   0.9211703715   0.0080838424
 H           1.0   0.5665489248  -0.9205940514  -0.0015616354

          INTERNUCLEAR DISTANCES (ANGS.)
          ------------------------------

                1 C          2 C          3 H          4 H          5 H     

   1 C       0.0000000    1.3284170 *  2.0996548 *  2.0996096 *  1.0772889 *
   2 C       1.3284170 *  0.0000000    1.0780773 *  1.0775426 *  2.0993151 *
   3 H       2.0996548 *  1.0780773 *  0.0000000    1.8439089 *  3.0615100  
   4 H       2.0996096 *  1.0775426 *  1.8439089 *  0.0000000    2.4442378 *
   5 H       1.0772889 *  2.0993151 *  3.0615100    2.4442378 *  0.0000000  
   6 H       1.0758184 *  2.0983576 *  2.4437384 *  3.0602492    1.8417898 *

                6 H     

   1 C       1.0758184 *
   2 C       2.0983576 *
   3 H       2.4437384 *
   4 H       3.0602492  
   5 H       1.8417898 *
   6 H       0.0000000  

  * ... LESS THAN  3.000

 ...... END OF ONE-ELECTRON INTEGRALS ......
 STEP CPU TIME =     0.00 TOTAL CPU TIME =         12.8 (      0.2 MIN)
 TOTAL WALL CLOCK TIME=         12.9 SECONDS, CPU UTILIZATION IS    98.97%
 TOTAL NUMBER OF NONZERO TWO-ELECTRON INTEGRALS =              261429
         18 INTEGRAL RECORDS WERE STORED ON DISK FILE  8.
  ...... END OF TWO-ELECTRON INTEGRALS .....
 STEP CPU TIME =     0.02 TOTAL CPU TIME =         12.8 (      0.2 MIN)
 TOTAL WALL CLOCK TIME=         12.9 SECONDS, CPU UTILIZATION IS    98.97%

          --------------------------
            R-BHHLYP SCF CALCULATION
          --------------------------
         DENSITY MATRIX CONVERGENCE THRESHOLD=  1.00E-05
     COARSE -> FINE DFT GRID SWITCH THRESHOLD=  3.00E-04 (SWITCH IN $DFT)
                   HF -> DFT SWITCH THRESHOLD=  5.00E-03 (SWOFF IN $DFT)

 DFT CODE IS SWITCHING FROM THE FINE GRID NRAD= 96,  NLEB=  302
                      TO THE COARSE GRID NRAD0= 24, NLEB0=  110

 ITER EX DEM     TOTAL ENERGY        E CHANGE  DENSITY CHANGE    DIIS ERROR
          * * *   INITIATING DIIS PROCEDURE   * * *
   1  0  0      -78.5290355134   -78.5290355134   0.006983884   0.010087048
   2  1  0      -78.5295193718    -0.0004838584   0.003376011   0.002863848
   3  2  0      -78.5295354846    -0.0000161128   0.000455604   0.000643042
   4  3  0      -78.5295363351    -0.0000008505   0.000160314   0.000155674
 DFT CODE IS SWITCHING BACK TO THE FINE GRID
          * * *   INITIATING DIIS PROCEDURE   * * *
   5  4  0      -78.5297222840    -0.0001859489   0.000329191   0.000636126
   6  5  0      -78.5297229031    -0.0000006191   0.000193379   0.000160732
   7  6  0      -78.5297229326    -0.0000000295   0.000103097   0.000111055
   8  7  0      -78.5297229542    -0.0000000216   0.000024156   0.000031478
   9  8  0      -78.5297229556    -0.0000000013   0.000006035   0.000006689
  10  9  0      -78.5297229556    -0.0000000001   0.000000687   0.000000938

          -----------------
          DENSITY CONVERGED
          -----------------
     TIME TO FORM FOCK OPERATORS=       3.5 SECONDS (       0.4 SEC/ITER)
     TIME TO SOLVE SCF EQUATIONS=       0.0 SECONDS (       0.0 SEC/ITER)

 FINAL R-BHHLYP ENERGY IS      -78.5297229556 AFTER  10 ITERATIONS
 DFT EXCHANGE + CORRELATION ENERGY =        -6.3793911883
 TOTAL ELECTRON NUMBER             =        15.9999356801
 ...... END OF RHF CALCULATION ......
 STEP CPU TIME =     3.58 TOTAL CPU TIME =         16.4 (      0.3 MIN)
 TOTAL WALL CLOCK TIME=         16.5 SECONDS, CPU UTILIZATION IS    99.10%
 ..... END OF 1-ELECTRON GRADIENT ......
 STEP CPU TIME =     0.00 TOTAL CPU TIME =         16.4 (      0.3 MIN)
 TOTAL WALL CLOCK TIME=         16.5 SECONDS, CPU UTILIZATION IS    99.10%
 MEMORY FOR GRID POINT CONTRIBUTIONS TO THE DFT GRADIENT=    232095 WORDS.
 STEP CPU TIME =     0.88 TOTAL CPU TIME =         17.3 (      0.3 MIN)
 TOTAL WALL CLOCK TIME=         17.4 SECONDS, CPU UTILIZATION IS    99.07%
 ...... END OF 2-ELECTRON GRADIENT ......
 STEP CPU TIME =     0.07 TOTAL CPU TIME =         17.3 (      0.3 MIN)
 TOTAL WALL CLOCK TIME=         17.5 SECONDS, CPU UTILIZATION IS    99.05%

          NSERCH=  3     ENERGY=     -78.5297230

                                 -----------------------
                                 GRADIENT (HARTREE/BOHR)
                                 -----------------------
        ATOM     ZNUC       DE/DX         DE/DY         DE/DZ
 --------------------------------------------------------------
    1  C            6.0     0.0131974    -0.0009523     0.0007809
    2  C            6.0    -0.0123381     0.0003475    -0.0034445
    3  H            1.0     0.0016022    -0.0006809     0.0016381
    4  H            1.0     0.0017597     0.0003726     0.0007822
    5  H            1.0    -0.0018445     0.0001866     0.0005449
    6  H            1.0    -0.0023767     0.0007264    -0.0003016

          MAXIMUM GRADIENT = 0.0131974    RMS GRADIENT = 0.0044688

 NSERCH:   3  E=      -78.5297229556  GRAD. MAX=  0.0131974  R.M.S.=  0.0044688

          HESSIAN UPDATED USING THE BFGS FORMULA
             ACTUAL ENERGY CHANGE WAS  -0.0003789800
          PREDICTED ENERGY CHANGE WAS  -0.0015313228 RATIO=  0.247
          MIN SEARCH, CORRECT HESSIAN, TRYING PURE NR STEP
               NR STEP HAS LENGTH         = 161.422858
          TRIM/QA LAMBDA FOR NON-TS MODES =  -0.00990256
          TRIM/QA STEP HAS LENGTH         =   0.150000
          RADIUS OF STEP TAKEN=   0.15000  CURRENT TRUST RADIUS=   0.15000

 BEGINNING GEOMETRY SEARCH POINT NSERCH=   4 ...

 COORDINATES OF ALL ATOMS ARE (ANGS)
   ATOM   CHARGE       X              Y              Z
 ------------------------------------------------------------
 C           6.0   0.0054173618  -0.0006251056   0.0128591354
 C           6.0  -1.3125604259  -0.0002044792   0.0169601542
 H           1.0  -1.8783366650  -0.9169357472  -0.0362542701
 H           1.0  -1.8787002148   0.9171393991   0.0226874002
 H           1.0   0.5674355787   0.9172042528  -0.0346374973
 H           1.0   0.5667443653  -0.9165783199   0.0243850776

          INTERNUCLEAR DISTANCES (ANGS.)
          ------------------------------

                1 C          2 C          3 H          4 H          5 H     

   1 C       0.0000000    1.3179842 *  2.0953679 *  2.0957785 *  1.0772795 *
   2 C       1.3179842 *  0.0000000    1.0785781 *  1.0779920 *  2.0925310 *
   3 H       2.0953679 *  1.0785781 *  0.0000000    1.8350220 *  3.0571022  
   4 H       2.0957785 *  1.0779920 *  1.8350220 *  0.0000000    2.4468074 *
   5 H       1.0772795 *  2.0925310 *  3.0571022    2.4468074 *  0.0000000  
   6 H       1.0743329 *  2.0908330 *  2.4458329 *  3.0565868    1.8347323 *

                6 H     

   1 C       1.0743329 *
   2 C       2.0908330 *
   3 H       2.4458329 *
   4 H       3.0565868  
   5 H       1.8347323 *
   6 H       0.0000000  

  * ... LESS THAN  3.000

 ...... END OF ONE-ELECTRON INTEGRALS ......
 STEP CPU TIME =     0.00 TOTAL CPU TIME =         17.3 (      0.3 MIN)
 TOTAL WALL CLOCK TIME=         17.5 SECONDS, CPU UTILIZATION IS    99.05%
 TOTAL NUMBER OF NONZERO TWO-ELECTRON INTEGRALS =              260889
         18 INTEGRAL RECORDS WERE STORED ON DISK FILE  8.
  ...... END OF TWO-ELECTRON INTEGRALS .....
 STEP CPU TIME =     0.02 TOTAL CPU TIME =         17.4 (      0.3 MIN)
 TOTAL WALL CLOCK TIME=         17.5 SECONDS, CPU UTILIZATION IS    99.04%

          --------------------------
            R-BHHLYP SCF CALCULATION
          --------------------------
         DENSITY MATRIX CONVERGENCE THRESHOLD=  1.00E-05
     COARSE -> FINE DFT GRID SWITCH THRESHOLD=  3.00E-04 (SWITCH IN $DFT)
                   HF -> DFT SWITCH THRESHOLD=  5.00E-03 (SWOFF IN $DFT)

 DFT CODE IS SWITCHING FROM THE FINE GRID NRAD= 96,  NLEB=  302
                      TO THE COARSE GRID NRAD0= 24, NLEB0=  110

 ITER EX DEM     TOTAL ENERGY        E CHANGE  DENSITY CHANGE    DIIS ERROR
          * * *   INITIATING DIIS PROCEDURE   * * *
   1  0  0      -78.5286679085   -78.5286679085   0.011069472   0.011119254
   2  1  0      -78.5292483745    -0.0005804660   0.003463768   0.003271482
   3  2  0      -78.5292731803    -0.0000248058   0.000788382   0.000996955
   4  3  0      -78.5292761910    -0.0000030107   0.000244630   0.000234457
 DFT CODE IS SWITCHING BACK TO THE FINE GRID
          * * *   INITIATING DIIS PROCEDURE   * * *
   5  4  0      -78.5294917054    -0.0002155145   0.000299683   0.000640115
   6  5  0      -78.5294922839    -0.0000005785   0.000171292   0.000129146
   7  6  0      -78.5294923025    -0.0000000186   0.000101745   0.000127281
   8  7  0      -78.5294923274    -0.0000000249   0.000020366   0.000024087
   9  8  0      -78.5294923283    -0.0000000008   0.000005146   0.000005837
  10  9  0      -78.5294923284    -0.0000000001   0.000000652   0.000000963

          -----------------
          DENSITY CONVERGED
          -----------------
     TIME TO FORM FOCK OPERATORS=       3.5 SECONDS (       0.4 SEC/ITER)
     TIME TO SOLVE SCF EQUATIONS=       0.0 SECONDS (       0.0 SEC/ITER)

 FINAL R-BHHLYP ENERGY IS      -78.5294923284 AFTER  10 ITERATIONS
 DFT EXCHANGE + CORRELATION ENERGY =        -6.3830947695
 TOTAL ELECTRON NUMBER             =        15.9999337728
 ...... END OF RHF CALCULATION ......
 STEP CPU TIME =     3.56 TOTAL CPU TIME =         20.9 (      0.3 MIN)
 TOTAL WALL CLOCK TIME=         22.3 SECONDS, CPU UTILIZATION IS    93.82%
 ..... END OF 1-ELECTRON GRADIENT ......
 STEP CPU TIME =     0.00 TOTAL CPU TIME =         20.9 (      0.3 MIN)
 TOTAL WALL CLOCK TIME=         22.3 SECONDS, CPU UTILIZATION IS    93.82%
 MEMORY FOR GRID POINT CONTRIBUTIONS TO THE DFT GRADIENT=    232095 WORDS.
 STEP CPU TIME =     0.86 TOTAL CPU TIME =         21.8 (      0.4 MIN)
 TOTAL WALL CLOCK TIME=         23.2 SECONDS, CPU UTILIZATION IS    94.05%
 ...... END OF 2-ELECTRON GRADIENT ......
 STEP CPU TIME =     0.07 TOTAL CPU TIME =         21.8 (      0.4 MIN)
 TOTAL WALL CLOCK TIME=         23.2 SECONDS, CPU UTILIZATION IS    94.07%

          NSERCH=  4     ENERGY=     -78.5294923

                                 -----------------------
                                 GRADIENT (HARTREE/BOHR)
                                 -----------------------
        ATOM     ZNUC       DE/DX         DE/DY         DE/DZ
 --------------------------------------------------------------
    1  C            6.0     0.0001205    -0.0018324     0.0018676
    2  C            6.0     0.0025465     0.0003013     0.0035090
    3  H            1.0     0.0006740     0.0000433    -0.0041919
    4  H            1.0     0.0007092    -0.0002320     0.0010533
    5  H            1.0    -0.0015381    -0.0004903    -0.0037156
    6  H            1.0    -0.0025121     0.0022102     0.0014776

          MAXIMUM GRADIENT = 0.0041919    RMS GRADIENT = 0.0020444

 NSERCH:   4  E=      -78.5294923284  GRAD. MAX=  0.0041919  R.M.S.=  0.0020444

          HESSIAN UPDATED USING THE BFGS FORMULA
             ACTUAL ENERGY CHANGE WAS   0.0002306273
          PREDICTED ENERGY CHANGE WAS  -0.0004128919 RATIO= -0.559
          MIN SEARCH, CORRECT HESSIAN, TRYING PURE NR STEP
               NR STEP HAS LENGTH         =  99.390186
          TRIM/QA LAMBDA FOR NON-TS MODES =  -0.07674464
          TRIM/QA STEP HAS LENGTH         =   0.075000
          RADIUS OF STEP TAKEN=   0.07500  CURRENT TRUST RADIUS=   0.07500

 BEGINNING GEOMETRY SEARCH POINT NSERCH=   5 ...

 COORDINATES OF ALL ATOMS ARE (ANGS)
   ATOM   CHARGE       X              Y              Z
 ------------------------------------------------------------
 C           6.0  -0.0002753353   0.0021461565   0.0017635052
 C           6.0  -1.3147227043  -0.0005142904   0.0076002306
 H           1.0  -1.8879204014  -0.9167668206  -0.0181070396
 H           1.0  -1.8874011441   0.9163777499   0.0143218749
 H           1.0   0.5803176108   0.9162587524  -0.0160398836
 H           1.0   0.5800019743  -0.9175015478   0.0164613126

          INTERNUCLEAR DISTANCES (ANGS.)
          ------------------------------

[...]
 C           6.0   0.0051818119   0.0000008168   0.0011206735
 C           6.0  -1.3151170302   0.0000112932   0.0008851639
 H           1.0  -1.8839801577  -0.9165781023   0.0008180171
 H           1.0  -1.8839824149   0.9165883687   0.0007935585
 H           1.0   0.5739436904   0.9166533310   0.0012252867
 H           1.0   0.5739541006  -0.9166757073   0.0011573002

          INTERNUCLEAR DISTANCES (ANGS.)
          ------------------------------

                1 C          2 C          3 H          4 H          5 H     

   1 C       0.0000000    1.3202989 *  2.0997738 *  2.0997796 *  1.0787687 *
   2 C       1.3202989 *  0.0000000    1.0787685 *  1.0787592 *  2.0997103 *
   3 H       2.0997738 *  1.0787685 *  0.0000000    1.8331665 *  3.0662888  
   4 H       2.0997796 *  1.0787592 *  1.8331665 *  0.0000000    2.4579261 *
   5 H       1.0787687 *  2.0997103 *  3.0662888    2.4579261 *  0.0000000  
   6 H       1.0787946 *  2.0997392 *  2.4579343 *  3.0663185    1.8333290 *

                6 H     

   1 C       1.0787946 *
   2 C       2.0997392 *
   3 H       2.4579343 *
   4 H       3.0663185  
   5 H       1.8333290 *
   6 H       0.0000000  

  * ... LESS THAN  3.000


          NUCLEAR ENERGY    =       33.6032259238
          ELECTRONIC ENERGY =     -112.1331603123
          TOTAL ENERGY      =      -78.5299343885

          ------------------
          MOLECULAR ORBITALS
          ------------------

                      1          2          3          4          5
                  -10.5861   -10.5848    -0.8687    -0.6653    -0.5400
                     A          A          A          A          A   
    1  C  1  S   -0.704364  -0.701164   0.159913  -0.121828  -0.000002
    2  C  1  S   -0.028521  -0.029073  -0.307062   0.242282   0.000003
    3  C  1  X   -0.000236   0.000272   0.103847   0.171816  -0.000018
    4  C  1  Y   -0.000000  -0.000000  -0.000004   0.000008  -0.328967
    5  C  1  Z   -0.000000   0.000000   0.000020   0.000024  -0.000008
    6  C  1  S    0.005886   0.012266  -0.229855   0.229307   0.000009
    7  C  1  X    0.000732  -0.001968   0.005054   0.069500  -0.000003
    8  C  1  Y    0.000000   0.000000  -0.000002   0.000001  -0.123644
    9  C  1  Z    0.000000  -0.000000   0.000002   0.000010  -0.000003
   10  C  1 XX    0.004560   0.004148  -0.011248  -0.004860   0.000001
   11  C  1 YY    0.004783   0.004435  -0.001491   0.017430  -0.000001
   12  C  1 ZZ    0.004983   0.004801   0.015709  -0.011560  -0.000000
   13  C  1 XY   -0.000000  -0.000000  -0.000000   0.000001  -0.008729
   14  C  1 XZ   -0.000000  -0.000000  -0.000005   0.000001  -0.000001
   15  C  1 YZ   -0.000000  -0.000000  -0.000001   0.000001  -0.000000
   16  C  2  S   -0.700738   0.704787   0.159916   0.121825   0.000000
   17  C  2  S   -0.028371   0.029220  -0.307060  -0.242277   0.000000
   18  C  2  X    0.000237   0.000270  -0.103839   0.171876   0.000018
   19  C  2  Y   -0.000000   0.000000  -0.000000  -0.000002  -0.328923
   20  C  2  Z    0.000000   0.000000  -0.000020   0.000025   0.000001
   21  C  2  S    0.005820  -0.012296  -0.229899  -0.229301  -0.000003
   22  C  2  X   -0.000744  -0.001964  -0.005060   0.069515   0.000007
   23  C  2  Y   -0.000000  -0.000000   0.000001   0.000003  -0.123647
   24  C  2  Z   -0.000000  -0.000000  -0.000001   0.000011  -0.000000
   25  C  2 XX    0.004539  -0.004171  -0.011249   0.004857   0.000000
   26  C  2 YY    0.004760  -0.004459  -0.001487  -0.017428  -0.000001
   27  C  2 ZZ    0.004958  -0.004826   0.015712   0.011560   0.000000
   28  C  2 XY    0.000000  -0.000000   0.000000   0.000000   0.008728
   29  C  2 XZ   -0.000000   0.000000  -0.000005  -0.000001  -0.000000
   30  C  2 YZ    0.000000   0.000000   0.000000   0.000000   0.000001
   31  H  3  S    0.000234  -0.000135  -0.083779  -0.146586   0.155885
   32  H  3  S   -0.001564   0.001588  -0.016480  -0.065471   0.108665
   33  H  4  S    0.000234  -0.000135  -0.083780  -0.146590  -0.155895
   34  H  4  S   -0.001564   0.001588  -0.016482  -0.065477  -0.108668
   35  H  5  S    0.000234   0.000134  -0.083781   0.146575  -0.155924
   36  H  5  S   -0.001572  -0.001580  -0.016489   0.065466  -0.108699
   37  H  6  S    0.000234   0.000134  -0.083777   0.146566   0.155916
   38  H  6  S   -0.001572  -0.001580  -0.016490   0.065464   0.108691

                      6          7          8          9         10
                   -0.4887    -0.4161    -0.3156     0.0754     0.1707
                     A          A          A          A          A   
    1  C  1  S   -0.013546  -0.000002   0.000003  -0.000004  -0.079907
    2  C  1  S    0.030156   0.000002  -0.000007   0.000004   0.109340
    3  C  1  X   -0.413117  -0.000006   0.000064  -0.000057   0.165803
    4  C  1  Y    0.000017  -0.309320   0.000024  -0.000017  -0.000037
    5  C  1  Z   -0.000067  -0.000025  -0.392453   0.388511   0.000018
    6  C  1  S   -0.005462   0.000012  -0.000007   0.000044   1.439805
    7  C  1  X   -0.145415   0.000002   0.000046  -0.000104   0.620048
    8  C  1  Y    0.000002  -0.147541   0.000016  -0.000032  -0.000085
    9  C  1  Z   -0.000023  -0.000013  -0.290497   0.680559   0.000057
   10  C  1 XX    0.007709   0.000000  -0.000006  -0.000008   0.004349
   11  C  1 YY   -0.022116   0.000000  -0.000000  -0.000000  -0.012771
   12  C  1 ZZ    0.000234  -0.000000   0.000007   0.000007  -0.004109
   13  C  1 XY   -0.000000  -0.033486   0.000002   0.000001   0.000003
   14  C  1 XZ    0.000002  -0.000000   0.019881   0.025089   0.000001
   15  C  1 YZ   -0.000001  -0.000004  -0.000001   0.000000   0.000000
   16  C  2  S   -0.013569   0.000000  -0.000003  -0.000002  -0.079897
   17  C  2  S    0.030196  -0.000001   0.000006   0.000002   0.109301
   18  C  2  X    0.413098   0.000008   0.000068   0.000059  -0.165780
   19  C  2  Y    0.000008   0.309369  -0.000015  -0.000008  -0.000033
   20  C  2  Z    0.000070  -0.000018  -0.392449  -0.388513  -0.000019
   21  C  2  S   -0.005359   0.000002   0.000005   0.000023   1.439752
   22  C  2  X    0.145422   0.000003   0.000048   0.000105  -0.620084
   23  C  2  Y    0.000010   0.147560  -0.000009  -0.000015  -0.000079
   24  C  2  Z    0.000024  -0.000010  -0.290497  -0.680561  -0.000064
   25  C  2 XX    0.007702  -0.000000   0.000006  -0.000008   0.004345
   26  C  2 YY   -0.022111  -0.000000   0.000000  -0.000000  -0.012772
   27  C  2 ZZ    0.000232  -0.000000  -0.000006   0.000008  -0.004113
   28  C  2 XY   -0.000000  -0.033490   0.000002  -0.000002  -0.000004
   29  C  2 XZ    0.000002  -0.000001  -0.019879   0.025091   0.000001
   30  C  2 YZ    0.000000  -0.000005   0.000000  -0.000000  -0.000000
   31  H  3  S   -0.124846  -0.194341   0.000008  -0.000010  -0.027508
   32  H  3  S   -0.104081  -0.179961   0.000010  -0.000032  -1.010037
   33  H  4  S   -0.124840   0.194334  -0.000010   0.000002  -0.027489
   34  H  4  S   -0.104082   0.179950  -0.000011   0.000009  -1.009824
   35  H  5  S   -0.124849  -0.194314   0.000010  -0.000000  -0.027521
   36  H  5  S   -0.104084  -0.179928   0.000010   0.000002  -1.009864
   37  H  6  S   -0.124865   0.194314  -0.000008  -0.000012  -0.027539
   38  H  6  S   -0.104103   0.179926  -0.000010  -0.000041  -1.010083

                     11         12         13         14         15
                    0.1924     0.2107     0.2950     0.3881     0.5387
                     A          A          A          A          A   
    1  C  1  S    0.000003  -0.111345  -0.000002   0.068109  -0.021087
    2  C  1  S   -0.000005   0.136381   0.000004  -0.018495  -0.196162
    3  C  1  X    0.000009   0.111311  -0.000003   0.164087   0.553043
    4  C  1  Y    0.283857   0.000023   0.293050  -0.000001   0.000009
    5  C  1  Z    0.000018   0.000010   0.000013   0.000023   0.000094
    6  C  1  S    0.000018   1.908081   0.000093  -3.101489  -0.257287
    7  C  1  X    0.000070   0.115784   0.000011   2.961368  -1.056453
    8  C  1  Y    0.750395   0.000067   1.778284   0.000018  -0.000018
    9  C  1  Z    0.000059  -0.000008   0.000043   0.000513  -0.000171
   10  C  1 XX    0.000001  -0.006834   0.000000   0.010445  -0.074596
   11  C  1 YY   -0.000001  -0.000615   0.000001  -0.025020   0.035254
   12  C  1 ZZ   -0.000000  -0.010723  -0.000001   0.011420   0.001361
   13  C  1 XY   -0.025088  -0.000003   0.018552  -0.000000   0.000002
   14  C  1 XZ    0.000000   0.000001  -0.000000   0.000001  -0.000016
   15  C  1 YZ   -0.000005  -0.000000   0.000004  -0.000002   0.000001
   16  C  2  S   -0.000022   0.111351   0.000002  -0.068105  -0.021096
   17  C  2  S    0.000031  -0.136368  -0.000001   0.018450  -0.196215
   18  C  2  X   -0.000028   0.111350   0.000005   0.164099  -0.552978
   19  C  2  Y    0.283852   0.000040  -0.293052  -0.000003  -0.000004
   20  C  2  Z   -0.000011   0.000015   0.000006   0.000022  -0.000095
   21  C  2  S    0.000380  -1.908402  -0.000066   3.101233  -0.256849
   22  C  2  X   -0.000096   0.115974  -0.000014   2.961509   1.056949
   23  C  2  Y    0.750310   0.000111  -1.778203  -0.000056  -0.000004
   24  C  2  Z   -0.000042   0.000009   0.000001   0.000524   0.000174
   25  C  2 XX   -0.000000   0.006839   0.000001  -0.010444  -0.074606
   26  C  2 YY   -0.000002   0.000613  -0.000001   0.025006   0.035249
   27  C  2 ZZ   -0.000001   0.010729   0.000000  -0.011409   0.001360
   28  C  2 XY    0.025085   0.000002   0.018541   0.000001   0.000000
   29  C  2 XZ    0.000001  -0.000001   0.000001  -0.000001  -0.000016
   30  C  2 YZ    0.000005  -0.000001   0.000004  -0.000001  -0.000000
   31  H  3  S    0.061347   0.035063   0.029091   0.084080   0.081922
   32  H  3  S    1.047637   1.039136  -1.564774   0.579749   0.098900
   33  H  4  S   -0.061360   0.035051  -0.029093   0.084070   0.081923
   34  H  4  S   -1.048109   1.038870   1.564826   0.579830   0.098930
   35  H  5  S   -0.061342  -0.035073   0.029121  -0.084138   0.081970
   36  H  5  S   -1.047972  -1.038913  -1.564849  -0.579565   0.098665
   37  H  6  S    0.061351  -0.035063  -0.029113  -0.084134   0.081950
   38  H  6  S    1.047902  -1.038691   1.564760  -0.579511   0.098680

                     16         17         18
                    0.6231     0.6350     0.7224
                     A          A          A   
    1  C  1  S   -0.000001  -0.000001   0.039544
    2  C  1  S    0.000010  -0.000027   0.748347
    3  C  1  X   -0.000119   0.000013  -0.027787
    4  C  1  Y   -0.000030  -0.402843  -0.000009
    5  C  1  Z    0.730955   0.000001   0.000220
    6  C  1  S   -0.000025   0.000116  -1.454610
    7  C  1  X    0.000146  -0.000032  -0.350705
    8  C  1  Y    0.000025   0.782983  -0.000025
    9  C  1  Z   -0.646163   0.000033  -0.000335
   10  C  1 XX    0.000022  -0.000001   0.083148
   11  C  1 YY   -0.000001   0.000001   0.150558
   12  C  1 ZZ   -0.000018   0.000000  -0.052329
   13  C  1 XY   -0.000000  -0.092802  -0.000004
   14  C  1 XZ   -0.061313  -0.000001   0.000034
   15  C  1 YZ    0.000001  -0.000012   0.000007
   16  C  2  S    0.000000  -0.000002   0.039530
   17  C  2  S   -0.000005  -0.000026   0.748413
   18  C  2  X   -0.000122  -0.000006   0.027788
   19  C  2  Y    0.000012  -0.402948  -0.000014
   20  C  2  Z    0.730941  -0.000012  -0.000222
   21  C  2  S    0.000022   0.000010  -1.454009
   22  C  2  X    0.000148  -0.000045   0.351605
   23  C  2  Y   -0.000009   0.783231   0.000039
   24  C  2  Z   -0.646143  -0.000014   0.000343
   25  C  2 XX   -0.000021  -0.000005   0.083156
   26  C  2 YY    0.000001  -0.000004   0.150551
   27  C  2 ZZ    0.000018   0.000002  -0.052323
   28  C  2 XY   -0.000002   0.092812   0.000003
   29  C  2 XZ    0.061313   0.000001   0.000036
   30  C  2 YZ   -0.000000   0.000014  -0.000001
   31  H  3  S    0.000004   0.385444   0.406299
   32  H  3  S    0.000027   0.078705   0.215214
   33  H  4  S    0.000006  -0.385475   0.406275
   34  H  4  S    0.000004  -0.078732   0.215203
   35  H  5  S   -0.000006  -0.385390   0.406298
   36  H  5  S   -0.000006  -0.078792   0.214948
   37  H  6  S   -0.000004   0.385388   0.406333
   38  H  6  S   -0.000028   0.078746   0.214864

     ---------------------------------------------------------------------
     PROPERTIES FOR THE BHHLYP   DFT FUNCTIONAL (RHF  TYPE) DENSITY MATRIX
     ---------------------------------------------------------------------

          -----------------
          ENERGY COMPONENTS
          -----------------

         WAVEFUNCTION NORMALIZATION =       1.0000000000

                ONE ELECTRON ENERGY =    -170.7449334513
                TWO ELECTRON ENERGY =      58.6117731390
           NUCLEAR REPULSION ENERGY =      33.6032259238
                                      ------------------
                       TOTAL ENERGY =     -78.5299343885

 ELECTRON-ELECTRON POTENTIAL ENERGY =      58.6117731390
  NUCLEUS-ELECTRON POTENTIAL ENERGY =    -248.6688436191
   NUCLEUS-NUCLEUS POTENTIAL ENERGY =      33.6032259238
                                      ------------------
             TOTAL POTENTIAL ENERGY =    -156.4538445563
               TOTAL KINETIC ENERGY =      77.9239101678
                 VIRIAL RATIO (V/T) =       2.0077771280

          ---------------------------------------
          MULLIKEN AND LOWDIN POPULATION ANALYSES
          ---------------------------------------

     ATOMIC MULLIKEN POPULATION IN EACH MOLECULAR ORBITAL

                      1          2          3          4          5

                  2.000000   2.000000   2.000000   2.000000   2.000000

    1             1.004652   0.994489   0.877332   0.645325   0.608794
    2             0.994354   1.004789   0.877408   0.645423   0.608682
    3             0.000247   0.000182   0.061310   0.177329   0.195580
    4             0.000247   0.000182   0.061313   0.177341   0.195603
    5             0.000250   0.000180   0.061321   0.177300   0.195680
    6             0.000250   0.000179   0.061317   0.177282   0.195662

                      6          7          8

                  2.000000   2.000000   2.000000

    1             0.736147   0.452009   1.000005
    2             0.736044   0.452157   0.999995
    3             0.131941   0.274007   0.000000
    4             0.131930   0.273981   0.000000
    5             0.131950   0.273919   0.000000
    6             0.131988   0.273927   0.000000

               ----- POPULATIONS IN EACH AO -----
                             MULLIKEN      LOWDIN
              1  C  1  S      1.99366     1.98058
              2  C  1  S      0.69227     0.36472
              3  C  1  X      0.77184     0.68378
              4  C  1  Y      0.73045     0.64505
              5  C  1  Z      0.53648     0.49611
              6  C  1  S      0.56915     0.33301
              7  C  1  X      0.22500     0.37044
              8  C  1  Y      0.31321     0.45782
              9  C  1  Z      0.45753     0.49371
             10  C  1 XX      0.01152     0.18242
             11  C  1 YY      0.01893     0.16924
             12  C  1 ZZ     -0.02443     0.10274
             13  C  1 XY      0.01715     0.03483
             14  C  1 XZ      0.00600     0.01019
             15  C  1 YZ      0.00000     0.00000
             16  C  2  S      1.99366     1.98058
             17  C  2  S      0.69227     0.36472
             18  C  2  X      0.77186     0.68379
             19  C  2  Y      0.73045     0.64506
             20  C  2  Z      0.53647     0.49610
             21  C  2  S      0.56920     0.33300
             22  C  2  X      0.22502     0.37044
             23  C  2  Y      0.31324     0.45783
             24  C  2  Z      0.45753     0.49371
             25  C  2 XX      0.01152     0.18243
             26  C  2 YY      0.01891     0.16922
             27  C  2 ZZ     -0.02443     0.10274
             28  C  2 XY      0.01715     0.03484
             29  C  2 XZ      0.00600     0.01019
             30  C  2 YZ      0.00000     0.00000
             31  H  3  S      0.52963     0.48459
             32  H  3  S      0.31097     0.35309
             33  H  4  S      0.52963     0.48459
             34  H  4  S      0.31097     0.35309
             35  H  5  S      0.52963     0.48458
             36  H  5  S      0.31097     0.35309
             37  H  6  S      0.52962     0.48458
             38  H  6  S      0.31099     0.35310

          ----- MULLIKEN ATOMIC OVERLAP POPULATIONS -----
          (OFF-DIAGONAL ELEMENTS NEED TO BE MULTIPLIED BY 2)

             1           2           3           4           5

    1    4.9443137
    2    0.6755441   4.9444346
    3   -0.0374210   0.3868593   0.5313189
    4   -0.0374200   0.3868647  -0.0376497   0.5313130
    5    0.3868673  -0.0374268   0.0043991  -0.0069105   0.5313056
    6    0.3868693  -0.0374247  -0.0069106   0.0043988  -0.0376355

             6

    6    0.5313067

          TOTAL MULLIKEN AND LOWDIN ATOMIC POPULATIONS
       ATOM         MULL.POP.    CHARGE          LOW.POP.     CHARGE
    1 C             6.318753   -0.318753         6.324635   -0.324635
    2 C             6.318851   -0.318851         6.324653   -0.324653
    3 H             0.840596    0.159404         0.837683    0.162317
    4 H             0.840596    0.159404         0.837680    0.162320
    5 H             0.840599    0.159401         0.837673    0.162327
    6 H             0.840604    0.159396         0.837676    0.162324

          -------------------------------
          BOND ORDER AND VALENCE ANALYSIS     BOND ORDER THRESHOLD=0.050
          -------------------------------

                   BOND                       BOND                       BOND
  ATOM PAIR DIST  ORDER      ATOM PAIR DIST  ORDER      ATOM PAIR DIST  ORDER
    1   2  1.320  2.021        1   5  1.079  0.948        1   6  1.079  0.948
    2   3  1.079  0.948        2   4  1.079  0.948

                       TOTAL       BONDED        FREE
      ATOM            VALENCE     VALENCE     VALENCE
    1 C                 3.895       3.895       0.000
    2 C                 3.895       3.895       0.000
    3 H                 0.936       0.936       0.000
    4 H                 0.936       0.936       0.000
    5 H                 0.936       0.936       0.000
    6 H                 0.936       0.936       0.000

          ---------------------
          ELECTROSTATIC MOMENTS
          ---------------------

 POINT   1           X           Y           Z (BOHR)    CHARGE
                -1.237723    0.000009    0.001894        0.00 (A.U.)
         DX          DY          DZ         /D/  (DEBYE)
    -0.000038    0.000013   -0.000012    0.000042
 ...... END OF PROPERTY EVALUATION ......
 STEP CPU TIME =     0.00 TOTAL CPU TIME =        107.1 (      1.8 MIN)
 TOTAL WALL CLOCK TIME=        109.7 SECONDS, CPU UTILIZATION IS    97.68%
  $VIB   
          IVIB=   0 IATOM=   0 ICOORD=   0 E=      -78.5299343885
  6.868039061E-06 1.311382523E-05 5.327517939E-06 9.282978592E-06 8.598822662E-06
 -4.142858176E-06-1.599416577E-05 2.524369830E-06 3.023099669E-06-1.411416777E-05
 -8.702048932E-06-1.075069834E-06 1.392479672E-06 1.048661582E-05 4.826666833E-07
  1.256483622E-05-2.602158461E-05-3.615356281E-06
 -3.767759223E-05 1.332289168E-05-1.227813920E-05
 ......END OF GEOMETRY SEARCH......
 STEP CPU TIME =     0.00 TOTAL CPU TIME =        107.1 (      1.8 MIN)
 TOTAL WALL CLOCK TIME=        109.7 SECONDS, CPU UTILIZATION IS    97.68%
              1056099  WORDS OF DYNAMIC MEMORY USED
 EXECUTION OF GAMESS TERMINATED NORMALLY 15:22:32 11-MAR-2022    
 DDI: 263640 bytes (0.3 MB / 0 MWords) used by master data server.

 ----------------------------------------
 CPU timing information for all processes
 ========================================
 0: 106.809 + 0.326 = 107.135
 ----------------------------------------
Note: The following floating-point exceptions are signalling: IEEE_UNDERFLOW_FLAG IEEE_DENORMAL
 ddikick.x: exited gracefully.
