
 Distributed Data Interface kickoff program.
 Initiating 1 compute processes on 1 nodes to run the following command:
 /usr/local/gamess/gamess.00.x /home/webmo/webmo/yamnor/80/input 

          *******************************************************
          *                                                     *
          *      GAMESS VERSION = 30 SEP 2021 (R2 Patch 1)      *
          *                                                     *
          *              doi.org/10.1063/5.0005188              *
          *                                                     *
          **************** 64 BIT LINUX VERSION *****************

  GAMESS HAS BEEN MADE POSSIBLE WITH IMPORTANT CONTRIBUTIONS FROM
  THE FOLLOWING INDIVIDUALS (IN ALPHABETICAL ORDER):

     IVANA ADAMOVIC, CHRISTINE AIKENS, TOMOKO AKAMA,
     YURI ALEXEEV, YURIKO AOKI, POOJA ARORA, TOSHIO ASADA,
     ANDREY ASADCHEV, KIM K. BALDRIDGE, PRADIPTA BANDYOPADHYAY,
     TAYLOR A. BARNES, MARIA BARYSZ, ROB BELL,
     JONATHAN BENTZ, COLLEEN BERTONI,
     JERRY A. BOATZ, BRETT BODE, KURT BRORSEN, KURT R. BRORSEN,
     LAIMUTIS BYTAUTAS, CALEB CARLIN, LAURA CARRINGTON,
     GALINA CHABAN, BENOIT CHAMPAGNE, WEI CHEN, MAHITO CHIBA,
     DAN CHIPMAN, CHEOL HO CHOI, TANNER CULPITT,
     DIPAYAN DATTA, PAUL DAY, ALBERT DEFUSCO,
     NUWAN DESILVA, J. EMILIANO DEUSTUA,
     TIM DUDLEY, MICHEL DUPUIS, STEVEN T. ELBERT,
     DMITRI FEDOROV, ALEX FINDLATER, GRAHAM FLETCHER,
     MARK FREITAG, CHRISTIAN FRIEDL, DAVID GARMER,
     IGOR S. GERASIMOV, KURT GLAESEMANN, MARK S. GORDON,
     JEFFREY GOUR, FENG LONG GU, EMILIE B. GUIDEZ,
     ANASTASIA GUNINA, SHARON HAMMES-SCHIFFER, MASATAKE HARUTA,
     KIMIHIKO HIRAO, YASUHIRO IKABATA, TZVETELIN IORDANOV,
     STEPHAN IRLE, KAZUYA ISHIMURA, JOE IVANIC, FRANK JENSEN,
     JAN H. JENSEN, VISVALDAS KAIRYS, MUNEAKI KAMIYA,
     MICHIO KATOUDA, NAOAKI KAWAKAMI, DAN KEMP, BERNARD KIRTMAN,
     KAZUO KITAURA, MARIUSZ KLOBUKOWSKI, MASATO KOBAYASHI,
     PRAKASHAN KORAMBATH, JACEK KORCHOWIEC, SHIRO KOSEKI,
     KAROL KOWALSKI, JIMMY KROMANN, STANISLAW KUCHARSKI,
     HENRY KURTZ, SAROM SOK LEANG, HUI LI, SHUHUA LI, WEI LI,
     JESSE LUTZ, ALEKSANDR O. LYKHIN, MARCIN MAKOWSKI,
     JOANI MATO, NIKITA MATSUNAGA, BENEDETTA MENNUCCI,
     GRANT MERRILL, NORIYUKI MINEZAWA, VLADIMIR MIRONOV,
     EISAKU MIYOSHI, JOHN A. MONTGOMERY JR., HIROTOSHI MORI,
     JONATHAN MULLIN, MONIKA MUSIAL, SHIGERU NAGASE,
     TAKESHI NAGATA, HIROMI NAKAI, TAKAHITO NAKAJIMA,
     YUYA NAKAJIMA, HARUYUKI NAKANO, HIROYA NAKATA, SEAN NEDD,
     HEATHER NETZLOFF, KIET A. NGUYEN, YOSHIO NISHIMOTO,
     BOSILJKA NJEGIC, RYAN OLSON, MIKE PAK, ROBERTO PEVERATI,
     BUU PHAM, PIOTR PIECUCH, ANNA POMOGAEVA, DAVID POOLE,
     SPENCER PRUITT, OLIVIER QUINET, LUKE ROSKOP,
     KLAUS RUEDENBERG, ANDREW SAND, TOSAPORN SATTASATHUCHANA,
     NOZOMI SAWADA, MICHAEL W. SCHMIDT, PATRICK E. SCHNEIDER,
     JUNJI SEINO, PRACHI SHARMA, JUN SHEN, JIM SHOEMAKER,
     YINAN SHU, DEJUN SI, JONATHAN SKONE, LYUDMILA SLIPCHENKO,
     TONY SMITH, JIE SONG, MARK SPACKMAN, CASPER STEINMANN,
     WALT STEVENS, PEIFENG SU, SHUJUN SU, CHET SWALINA,
     TETSUYA TAKETSUGU, ZHEN TAO, NANDUN THELLAMUREGE
     SEIKEN TOKURA, JACOPO TOMASI, TSUGUKI TOUMA, TAKAO TSUNEDA,
     HIROAKI UMEDA, JORGE LUIS GALVEZ VALLEJO, YALI WANG,
     SIMON WEBB, AARON WEST, THERESA L. WINDUS, MARTA WLOCH,
     PENG XU, KIYOSHI YAGI, SUSUMU YANAGISAWA, YANG YANG,
     SOOHAENG YOO, TAKESHI YOSHIKAWA, FEDERICO ZAHARIEV,
     TOBY ZENG

  WHO ARE SUPPORTED BY THEIR INSTITUTION/UNIVERSITY/COMPANY/GROUP
  (IN ALPHABETICAL ORDER):

     EP ANALYTICS, FACULTES UNIVERSITAIRES NOTRE-DAME DE LA PAIX,
     INSTITUTE FOR MOLECULAR SCIENCE, IOWA STATE UNIVERSITY,
     JACKSON STATE UNIVERSITY, JOHANNES KEPLER UNIVERSITY LINZ,
     KYUSHU UNIVERSITY, MICHIGAN STATE UNIVERSITY,
     MIE UNIVERSITY, THE MOLECULAR SCIENCES SOFTWARE INSTITUTE,
     MOSCOW STATE UNIVERSITY,
     N. COPERNICUS UNIVERSITY, NAGOYA UNIVERSITY,
     NANJING UNIVERSITY, NAT. INST. OF ADVANCED INDUSTRIAL
     SCIENCE AND TECHNOLOGY, NATIONAL INST. OF STANDARDS AND
     TECHNOLOGY, NESMEYANOV INSTITUTE OF ORGANOELEMENT COMPOUNDS
     OF RUSSIAN ACADEMY OF SCIENCES, OSAKA PREFECTURE UNIVERSITY,
     PENNSYLVANIA STATE UNIVERSITY, TOKYO INSTITUTE OF TECHNOLOGY,
     UNIVERSITY OF AARHUS, UNIVERSITY OF ALBERTA,
     UNIVERSITY OF CALIFORNIA AT SANTA BARBARA,
     UNIVERSITY OF COPENHAGEN, UNIVERSITY OF IOWA,
     UNIVERSITY OF MEMPHIS, UNIVERSITY OF MINNESOTA,
     UNIVERSITY OF NEBRASKA, UNIVERSITY OF NEW ENGLAND,
     UNIVERSITY OF NOTRE DAME, UNIVERSITY OF PISA,
     UNIVERSITY OF SILESIA, UNIVERSITY OF TOKYO,
     UNIVERSITY OF ZURICH, WASEDA UNIVERSITY, YALE UNIVERSITY

  GAMESS SOFTWARE MANAGEMENT TEAM FOR THIS RELEASE:
     MARK S. GORDON (TEAM LEAD),
     BRETT BODE (SENIOR ADVISOR),
     GIUSEPPE BARCA,
     COLLEEN BERTONI,
     KRISTOPHER KEIPERT (ADVISOR),
     SAROM S. LEANG (DEVELOPMENT LEAD),
     BUU PHAM,
     JORGE LUIS GALVEZ VALLEJO (WEBSITE ADMINISTRATOR),
     PENG XU

 EXECUTION OF GAMESS BEGUN 15:27:38 11-MAR-2022    

            ECHO OF THE FIRST FEW INPUT CARDS -
 INPUT CARD> $CONTRL                                                                        
 INPUT CARD>    RUNTYP=OPTIMIZE                                                             
 INPUT CARD>    TDDFT=EXCITE                                                                
 INPUT CARD>    SCFTYP= RHF                                                                 
 INPUT CARD>    DFTTYP=BHHLYP                                                               
 INPUT CARD>    ICHARG=0                                                                    
 INPUT CARD>    MULT=1                                                                      
 INPUT CARD>    COORD=UNIQUE                                                                
 INPUT CARD> $END                                                                           
 INPUT CARD> $STATPT                                                                        
 INPUT CARD>    NSTEP=100                                                                   
 INPUT CARD> $END                                                                           
 INPUT CARD> $TDDFT                                                                         
 INPUT CARD>    NSTATE=3                                                                    
 INPUT CARD>    IROOT=1                                                                     
 INPUT CARD> $END                                                                           
 INPUT CARD> $SYSTEM                                                                        
 INPUT CARD>    MWORDS=128                                                                  
 INPUT CARD> $END                                                                           
 INPUT CARD> $BASIS                                                                         
 INPUT CARD>    GBASIS=N31 NGAUSS=6 NDFUNC=1                                                
 INPUT CARD> $END                                                                           
 INPUT CARD> $DATA                                                                          
 INPUT CARD>C2H4                                                                            
 INPUT CARD>C1 1                                                                            
 INPUT CARD>C 6 0.00000000 0.00000000 0.00000000                                            
 INPUT CARD>C 6 -1.32029900 0.00001000 -0.00023600                                          
 INPUT CARD>H 1 -1.88916200 -0.91657900 -0.00030300                                         
 INPUT CARD>H 1 -1.88916400 0.91658700 -0.00032700                                          
 INPUT CARD>H 1 0.56876200 0.91665200 0.00010500                                            
 INPUT CARD>H 1 0.56877200 -0.91667600 0.00003700                                           
 INPUT CARD> $END                                                                           
 INPUT CARD>                                                                                
  128000000 WORDS OF MEMORY AVAILABLE

     BASIS OPTIONS
     -------------
     GBASIS=N31          IGAUSS=       6      POLAR=POPN31  
     NDFUNC=       1     NFFUNC=       0     DIFFSP=       F
     NPFUNC=       0      DIFFS=       F     BASNAM=        


     RUN TITLE
     ---------
 C2H4                                                                            

 THE POINT GROUP OF THE MOLECULE IS C1      
 THE ORDER OF THE PRINCIPAL AXIS IS     1

 ATOM      ATOMIC                      COORDINATES (BOHR)
           CHARGE         X                   Y                   Z
 C           6.0     0.0000000000        0.0000000000        0.0000000000
 C           6.0    -2.4950033319        0.0000188973       -0.0004459753
 H           1.0    -3.5699985264       -1.7320831561       -0.0005725870
 H           1.0    -3.5700023059        1.7320982739       -0.0006179404
 H           1.0     1.0748043322        1.7322211061        0.0001984212
 H           1.0     1.0748232295       -1.7322664595        0.0000699199

          INTERNUCLEAR DISTANCES (ANGS.)
          ------------------------------

                1 C          2 C          3 H          4 H          5 H     

   1 C       0.0000000    1.3202990 *  2.0997738 *  2.0997791 *  1.0787683 *
   2 C       1.3202990 *  0.0000000    1.0787681 *  1.0787589 *  2.0997105 *
   3 H       2.0997738 *  1.0787681 *  0.0000000    1.8331660 *  3.0662887  
   4 H       2.0997791 *  1.0787589 *  1.8331660 *  0.0000000    2.4579260 *
   5 H       1.0787683 *  2.0997105 *  3.0662887    2.4579260 *  0.0000000  
   6 H       1.0787940 *  2.0997387 *  2.4579340 *  3.0663175    1.8333280 *

                6 H     

   1 C       1.0787940 *
   2 C       2.0997387 *
   3 H       2.4579340 *
   4 H       3.0663175  
   5 H       1.8333280 *
   6 H       0.0000000  

  * ... LESS THAN  3.000


     ATOMIC BASIS SET
     ----------------
 THE CONTRACTED PRIMITIVE FUNCTIONS HAVE BEEN UNNORMALIZED
 THE CONTRACTED BASIS FUNCTIONS ARE NOW NORMALIZED TO UNITY

  SHELL TYPE  PRIMITIVE        EXPONENT          CONTRACTION COEFFICIENT(S)

 C         

      1   S       1          3047.5248800    0.001834737132
      1   S       2           457.3695180    0.014037322813
      1   S       3           103.9486850    0.068842622264
      1   S       4            29.2101553    0.232184443216
      1   S       5             9.2866630    0.467941348435
      1   S       6             3.1639270    0.362311985337

      2   L       7             7.8682723   -0.119332419775    0.068999066591
      2   L       8             1.8812885   -0.160854151696    0.316423960957
      2   L       9             0.5442493    1.143456437840    0.744308290898

      3   L      10             0.1687145    1.000000000000    1.000000000000

      4   D      11             0.8000000    1.000000000000

 C         

      5   S      12          3047.5248800    0.001834737132
      5   S      13           457.3695180    0.014037322813
      5   S      14           103.9486850    0.068842622264
      5   S      15            29.2101553    0.232184443216
      5   S      16             9.2866630    0.467941348435
      5   S      17             3.1639270    0.362311985337

      6   L      18             7.8682723   -0.119332419775    0.068999066591
      6   L      19             1.8812885   -0.160854151696    0.316423960957
      6   L      20             0.5442493    1.143456437840    0.744308290898

      7   L      21             0.1687145    1.000000000000    1.000000000000

      8   D      22             0.8000000    1.000000000000

 H         

      9   S      23            18.7311370    0.033494604338
      9   S      24             2.8253944    0.234726953484
      9   S      25             0.6401217    0.813757326146

     10   S      26             0.1612778    1.000000000000

 H         

     11   S      27            18.7311370    0.033494604338
     11   S      28             2.8253944    0.234726953484
     11   S      29             0.6401217    0.813757326146

     12   S      30             0.1612778    1.000000000000

 H         

     13   S      31            18.7311370    0.033494604338
     13   S      32             2.8253944    0.234726953484
     13   S      33             0.6401217    0.813757326146

     14   S      34             0.1612778    1.000000000000

 H         

     15   S      35            18.7311370    0.033494604338
     15   S      36             2.8253944    0.234726953484
     15   S      37             0.6401217    0.813757326146

     16   S      38             0.1612778    1.000000000000

 TOTAL NUMBER OF BASIS SET SHELLS             =   16
 NUMBER OF CARTESIAN GAUSSIAN BASIS FUNCTIONS =   38
 NUMBER OF ELECTRONS                          =   16
 CHARGE OF MOLECULE                           =    0
 SPIN MULTIPLICITY                            =    1
 NUMBER OF OCCUPIED ORBITALS (ALPHA)          =    8
 NUMBER OF OCCUPIED ORBITALS (BETA )          =    8
 TOTAL NUMBER OF ATOMS                        =    6
 THE NUCLEAR REPULSION ENERGY IS       33.6032295159

 SELECTED MURRAY-HANDY-LAMING RADIAL GRID

 LEGACY BECKE'S FUZZY CELL METHOD

 SELECTED ORIGINAL BECKE'S PARTITION FUNCTION

     LEBEDEV GRID-BASED DFT OPTIONS
     ------------------------------
     DFTTYP=BHHLYP  
     NRAD  =      96     NLEB  =     302
     NRAD0 =      24     NLEB0 =     110
     SWOFF =    5.00E-03 (PURE SCF -> DFT)
     SWITCH=    3.00E-04 (COARSE -> TIGHT GRID)
     THRESH=    0.00E+00 GTHRE=    1.00E+00

 GRIMME'S EMPIRICAL DISPERSION CORRECTION= F

     $CONTRL OPTIONS
     ---------------
 SCFTYP=RHF          RUNTYP=OPTIMIZE     EXETYP=RUN     
 MPLEVL=       0     CITYP =NONE         CCTYP =NONE         VBTYP =NONE    
 DFTTYP=BHHLYP       TDDFT =EXCITE  
 MULT  =       1     ICHARG=       0     NZVAR =       0     COORD =UNIQUE  
 PP    =NONE         RELWFN=NONE         LOCAL =NONE         NUMGRD=       F
 ISPHER=      -1     NOSYM =       0     MAXIT =      30     UNITS =ANGS    
 PLTORB=       F     MOLPLT=       F     AIMPAC=       F     FRIEND=        
 NPRINT=       7     IREST =       0     GEOM  =INPUT   
 NORMF =       0     NORMP =       0     ITOL  =      20     ICUT  =       9
 INTTYP=BEST         GRDTYP=BEST         QMTTOL= 1.0E-06

     $SYSTEM OPTIONS
     ---------------
  REPLICATED MEMORY=   128000000 WORDS (ON EVERY NODE).
 DISTRIBUTED MEMDDI=           0 MILLION WORDS IN AGGREGATE,
 MEMDDI DISTRIBUTED OVER   1 PROCESSORS IS           0 WORDS/PROCESSOR.
 TOTAL MEMORY REQUESTED ON EACH PROCESSOR=   128000000 WORDS.
 TIMLIM=      525600.00 MINUTES, OR     365.0 DAYS.
 PARALL= F  BALTYP=  DLB     KDIAG=    0  COREFL= F
 MXSEQ2=     300 MXSEQ3=     150  mem10=         0  mem22=         0

          ----------------
          PROPERTIES INPUT
          ----------------

     MOMENTS            FIELD           POTENTIAL          DENSITY
 IEMOM =       1   IEFLD =       0   IEPOT =       0   IEDEN =       0
 WHERE =COMASS     WHERE =NUCLEI     WHERE =NUCLEI     WHERE =NUCLEI  
 OUTPUT=BOTH       OUTPUT=BOTH       OUTPUT=BOTH       OUTPUT=BOTH    
 IEMINT=       0   IEFINT=       0                     IEDINT=       0
                                                       MORB  =       0
          EXTRAPOLATION IN EFFECT
          DIIS IN EFFECT
 ORBITAL PRINTING OPTION: NPREO=     1    38     2     1

     -------------------------------
     INTEGRAL TRANSFORMATION OPTIONS
     -------------------------------
     NWORD  =            0
     CUTOFF = 1.0E-09     MPTRAN =       0
     DIRTRF =       F     AOINTS =DUP     

          ----------------------
          INTEGRAL INPUT OPTIONS
          ----------------------
 NOPK  =       1 NORDER=       0 SCHWRZ=       T

          ----------------------
          TDDFT INPUT PARAMETERS
          ----------------------
 NSTATE=       3 IROOT =       1 MULT  =       1
 MAXVEC=      50 NTRIAL=       5 CNVTOL=  1.00E-07
 TDPRP =       F TRNSD =       F TAMMD =       F
 TPA   =       F ALPHA =       F BETA  =       F
 PFREQ =    0.00    0.00
   NRAD=      48   NLEB=     110

     ------------------------------------------
     THE POINT GROUP IS C1 , NAXIS= 1, ORDER= 1
     ------------------------------------------

     DIMENSIONS OF THE SYMMETRY SUBSPACES ARE
 A   =   38

 ..... DONE SETTING UP THE RUN .....
 STEP CPU TIME =     0.01 TOTAL CPU TIME =          0.0 (      0.0 MIN)
 TOTAL WALL CLOCK TIME=          0.0 SECONDS, CPU UTILIZATION IS    81.22%


          -----------------------------
          STATIONARY POINT LOCATION RUN
          -----------------------------

 OBTAINING INITIAL HESSIAN, HESS=GUESS   
 CARTESIAN COORDINATE OPTIMIZATION USING BADGER'S RULE FORCE CONSTANT GUESS

          PARAMETERS CONTROLLING GEOMETRY SEARCH ARE
          METHOD =QA                  UPHESS =BFGS    
          NNEG   =         0          NFRZ   =         0
          NSTEP  =       100          IFOLOW =         1
          HESS   =GUESS               RESTAR =         F
          IHREP  =         0          HSSEND =         F
          NPRT   =         0          NPUN   =         0
          OPTTOL = 1.000E-04          RMIN   = 1.500E-03
          RMAX   = 1.000E-01          RLIM   = 7.000E-02
          DXMAX  = 3.000E-01          PURIFY =         F
          MOVIE  =         F          TRUPD  =         T
          TRMAX  = 5.000E-01          TRMIN  = 5.000E-02
          ITBMAT =         5          STPT   =         F
          STSTEP = 1.000E-02          PROJCT=          T

 BEGINNING GEOMETRY SEARCH POINT NSERCH=   0 ...

 COORDINATES OF ALL ATOMS ARE (ANGS)
   ATOM   CHARGE       X              Y              Z
 ------------------------------------------------------------
 C           6.0   0.0000000000   0.0000000000   0.0000000000
 C           6.0  -1.3202990000   0.0000100000  -0.0002360000
 H           1.0  -1.8891620000  -0.9165790000  -0.0003030000
 H           1.0  -1.8891640000   0.9165870000  -0.0003270000
 H           1.0   0.5687620000   0.9166520000   0.0001050000
 H           1.0   0.5687720000  -0.9166760000   0.0000370000

          ********************
          1 ELECTRON INTEGRALS
          ********************
 ...... END OF ONE-ELECTRON INTEGRALS ......
 STEP CPU TIME =     0.00 TOTAL CPU TIME =          0.0 (      0.0 MIN)
 TOTAL WALL CLOCK TIME=          0.0 SECONDS, CPU UTILIZATION IS    56.60%

          -------------
          GUESS OPTIONS
          -------------
          GUESS =HUCKEL            NORB  =       0          NORDER=       0
          MIX   =       F          PRTMO =       F          PUNMO =       F
          TOLZ  = 1.0E-08          TOLE  = 1.0E-05
          SYMDEN=       F          PURIFY=       F

 INITIAL GUESS ORBITALS GENERATED BY HUCKEL   ROUTINE.
 HUCKEL GUESS REQUIRES     15726 WORDS.

 SYMMETRIES FOR INITIAL GUESS ORBITALS FOLLOW.   BOTH SET(S).
     8 ORBITALS ARE OCCUPIED (    2 CORE ORBITALS).
     3=A        4=A        5=A        6=A        7=A        8=A        9=A   
    10=A       11=A       12=A       13=A       14=A       15=A       16=A   
    17=A       18=A   
 ...... END OF INITIAL ORBITAL SELECTION ......
 STEP CPU TIME =     0.00 TOTAL CPU TIME =          0.0 (      0.0 MIN)
 TOTAL WALL CLOCK TIME=          0.0 SECONDS, CPU UTILIZATION IS    56.32%

                    ----------------------
                    AO INTEGRAL TECHNOLOGY
                    ----------------------
     S,P,L SHELL ROTATED AXIS INTEGRALS, REPROGRAMMED BY
        KAZUYA ISHIMURA (IMS) AND JOSE SIERRA (SYNSTAR).
     S,P,D,L SHELL ROTATED AXIS INTEGRALS PROGRAMMED BY
        KAZUYA ISHIMURA (INSTITUTE FOR MOLECULAR SCIENCE).
     S,P,D,F,G SHELL TO TOTAL QUARTET ANGULAR MOMENTUM SUM 5,
        ERIC PROGRAM BY GRAHAM FLETCHER (ELORET AND NASA ADVANCED
        SUPERCOMPUTING DIVISION, AMES RESEARCH CENTER).
     S,P,D,F,G,L SHELL GENERAL RYS QUADRATURE PROGRAMMED BY
        MICHEL DUPUIS (PACIFIC NORTHWEST NATIONAL LABORATORY).

          --------------------
          2 ELECTRON INTEGRALS
          --------------------

 THE -PK- OPTION IS OFF, THE INTEGRALS ARE NOT IN SUPERMATRIX FORM.
 STORING   15000 INTEGRALS/RECORD ON DISK, USING 12 BYTES/INTEGRAL.
 TWO ELECTRON INTEGRAL EVALUATION REQUIRES   90532 WORDS OF MEMORY.
 SCHWARZ INEQUALITY OVERHEAD:       741 INTEGRALS, T=        0.00
 II,JST,KST,LST =  1  1  1  1 NREC =         1 INTLOC =    1
 II,JST,KST,LST =  2  1  1  1 NREC =         1 INTLOC =    2
 II,JST,KST,LST =  3  1  1  1 NREC =         1 INTLOC =   34
 II,JST,KST,LST =  4  1  1  1 NREC =         1 INTLOC =  214
 II,JST,KST,LST =  5  1  1  1 NREC =         1 INTLOC = 1189
 II,JST,KST,LST =  6  1  1  1 NREC =         1 INTLOC = 2755
 II,JST,KST,LST =  7  1  1  1 NREC =         1 INTLOC =12747
 II,JST,KST,LST =  8  1  1  1 NREC =         3 INTLOC =  168
 II,JST,KST,LST =  9  1  1  1 NREC =         5 INTLOC =14839
 II,JST,KST,LST = 10  1  1  1 NREC =         6 INTLOC =14605
 II,JST,KST,LST = 11  1  1  1 NREC =         8 INTLOC =  970
 II,JST,KST,LST = 12  1  1  1 NREC =         9 INTLOC = 3709
 II,JST,KST,LST = 13  1  1  1 NREC =        10 INTLOC = 8265
 II,JST,KST,LST = 14  1  1  1 NREC =        11 INTLOC =14209
 II,JST,KST,LST = 15  1  1  1 NREC =        13 INTLOC = 7410
 II,JST,KST,LST = 16  1  1  1 NREC =        15 INTLOC = 2107
 SCHWARZ INEQUALITY TEST SKIPPED          18 INTEGRAL BLOCKS.
 TOTAL NUMBER OF NONZERO TWO-ELECTRON INTEGRALS =              239335
         16 INTEGRAL RECORDS WERE STORED ON DISK FILE  8.
  ...... END OF TWO-ELECTRON INTEGRALS .....
 STEP CPU TIME =     0.06 TOTAL CPU TIME =          0.1 (      0.0 MIN)
 TOTAL WALL CLOCK TIME=          0.1 SECONDS, CPU UTILIZATION IS    70.68%

          --------------------------
            R-BHHLYP SCF CALCULATION
          --------------------------

     NUCLEAR ENERGY =        33.6032295159
     MAXIT =   30     NPUNCH=    2
     EXTRAP=T  DAMP=F  SHIFT=F  RSTRCT=F  DIIS=T  DEM=F  SOSCF=F
         DENSITY MATRIX CONVERGENCE THRESHOLD=  1.00E-06
     COARSE -> FINE DFT GRID SWITCH THRESHOLD=  3.00E-04 (SWITCH IN $DFT)
                   HF -> DFT SWITCH THRESHOLD=  5.00E-03 (SWOFF IN $DFT)
     MEMORY REQUIRED FOR RHF ITERS=    266475 WORDS.

 DFT CODE IS SWITCHING FROM THE FINE GRID NRAD= 96,  NLEB=  302
                      TO THE COARSE GRID NRAD0= 24, NLEB0=  110

     EXCHANGE FUNCTIONAL   =B88&HFX   
     CORRELATION FUNCTIONAL=LYP88     
     DFT THRESHOLD         =.230E-07
     GRID CHANGE THRESHOLD =.300E-03
 FOR AN EULER-MACLAURIN QUADRATURE USING  96 RADIAL POINTS:
 SMALLEST GAUSSIAN PRIMITIVE EXPONENT=        0.1612777588 OF TYPE -S-
 ON ATOM NUMBER   3 HAS RADIAL NORMALIZATION=  1.000000
  LARGEST GAUSSIAN PRIMITIVE EXPONENT=     3047.5248800000 OF TYPE -S-
 ON ATOM NUMBER   1 HAS RADIAL NORMALIZATION=  1.000000
 DFT IS SWITCHED OFF, PERFORMING PURE SCF UNTIL SWOFF THRESHOLD IS REACHED.

 ITER EX DEM     TOTAL ENERGY        E CHANGE  DENSITY CHANGE    DIIS ERROR
          * * *   INITIATING DIIS PROCEDURE   * * *
   1  0  0      -77.8552697908   -77.8552697908   0.121142953   0.484750519
   2  1  0      -78.0218110690    -0.1665412781   0.057950635   0.104874418
   3  2  0      -78.0305293046    -0.0087182356   0.013616614   0.019555586
   4  3  0      -78.0315929747    -0.0010636701   0.005812971   0.008554487
   5  4  0      -78.0316793889    -0.0000864142   0.000406683   0.000502280
 CONVERGED TO SWOFF, SO DFT CALCULATION IS NOW SWITCHED ON.
          * * *   INITIATING DIIS PROCEDURE   * * *
   6  5  0      -78.5261149079    -0.4944355190   0.032485415   0.069415870
   7  6  0      -78.5293007580    -0.0031858501   0.013805956   0.014475081
   8  7  0      -78.5295777541    -0.0002769960   0.005020977   0.009594819
   9  8  0      -78.5297250329    -0.0001472788   0.000213688   0.000348503
 DFT CODE IS SWITCHING BACK TO THE FINE GRID
          * * *   INITIATING DIIS PROCEDURE   * * *
  10  9  0      -78.5299338296    -0.0002087967   0.000274717   0.000654402
  11 10  0      -78.5299343646    -0.0000005350   0.000118071   0.000136601
  12 11  0      -78.5299343827    -0.0000000181   0.000028092   0.000058570
  13 12  0      -78.5299343884    -0.0000000057   0.000008660   0.000012628
  14 13  0      -78.5299343886    -0.0000000002   0.000000905   0.000000917
  15 14  0      -78.5299343887    -0.0000000000   0.000000179   0.000000130

          -----------------
          DENSITY CONVERGED
          -----------------
     TIME TO FORM FOCK OPERATORS=       3.5 SECONDS (       0.2 SEC/ITER)
     TIME TO SOLVE SCF EQUATIONS=       0.0 SECONDS (       0.0 SEC/ITER)

 FINAL R-BHHLYP ENERGY IS      -78.5299343887 AFTER  15 ITERATIONS
 DFT EXCHANGE + CORRELATION ENERGY =        -6.3808355467
 TOTAL ELECTRON NUMBER             =        15.9999329323

          ------------
          EIGENVECTORS
          ------------

                      1          2          3          4          5
                  -10.5861   -10.5848    -0.8687    -0.6653    -0.5400
                     A          A          A          A          A   
    1  C  1  S    0.704418  -0.701109  -0.159913  -0.121828   0.000002
    2  C  1  S    0.028524  -0.029071   0.307062   0.242282  -0.000003
    3  C  1  X    0.000236   0.000272  -0.103846   0.171816   0.000018
    4  C  1  Y    0.000000  -0.000000   0.000004   0.000007   0.328967
    5  C  1  Z    0.000000   0.000000  -0.000020   0.000024   0.000008
    6  C  1  S   -0.005887   0.012265   0.229855   0.229307  -0.000009
    7  C  1  X   -0.000731  -0.001969  -0.005054   0.069500   0.000003
    8  C  1  Y   -0.000000   0.000000   0.000002   0.000001   0.123644
    9  C  1  Z   -0.000000  -0.000000  -0.000002   0.000010   0.000003
   10  C  1 XX   -0.004561   0.004148   0.011248  -0.004860  -0.000001
   11  C  1 YY   -0.004783   0.004435   0.001491   0.017430   0.000001
   12  C  1 ZZ   -0.004983   0.004800  -0.015709  -0.011560   0.000000
   13  C  1 XY    0.000000  -0.000000   0.000000   0.000001   0.008729
   14  C  1 XZ    0.000000  -0.000000   0.000005   0.000001   0.000001
   15  C  1 YZ    0.000000  -0.000000   0.000001   0.000001   0.000000
   16  C  2  S    0.700684   0.704841  -0.159916   0.121825  -0.000000
   17  C  2  S    0.028369   0.029222   0.307060  -0.242277  -0.000000
   18  C  2  X   -0.000237   0.000270   0.103839   0.171876  -0.000018
   19  C  2  Y    0.000000   0.000000   0.000000  -0.000002   0.328923
   20  C  2  Z   -0.000000   0.000000   0.000020   0.000025  -0.000001
   21  C  2  S   -0.005819  -0.012297   0.229899  -0.229301   0.000003
   22  C  2  X    0.000744  -0.001964   0.005060   0.069515  -0.000007
   23  C  2  Y    0.000000  -0.000000  -0.000001   0.000002   0.123647
   24  C  2  Z    0.000000  -0.000000   0.000001   0.000011   0.000000
   25  C  2 XX   -0.004538  -0.004172   0.011249   0.004857  -0.000000
   26  C  2 YY   -0.004760  -0.004460   0.001487  -0.017428   0.000001
   27  C  2 ZZ   -0.004958  -0.004827  -0.015712   0.011560  -0.000000
   28  C  2 XY   -0.000000  -0.000000  -0.000000   0.000000  -0.008728
   29  C  2 XZ    0.000000   0.000000   0.000005  -0.000001   0.000000
   30  C  2 YZ   -0.000000   0.000000  -0.000000   0.000000  -0.000001
   31  H  3  S   -0.000234  -0.000135   0.083779  -0.146586  -0.155885
   32  H  3  S    0.001564   0.001588   0.016480  -0.065471  -0.108664
   33  H  4  S   -0.000234  -0.000135   0.083780  -0.146590   0.155895
   34  H  4  S    0.001564   0.001588   0.016482  -0.065477   0.108668
   35  H  5  S   -0.000234   0.000134   0.083781   0.146575   0.155924
   36  H  5  S    0.001572  -0.001580   0.016489   0.065466   0.108699
   37  H  6  S   -0.000234   0.000134   0.083777   0.146566  -0.155916
   38  H  6  S    0.001572  -0.001580   0.016491   0.065464  -0.108691

                      6          7          8          9         10
                   -0.4887    -0.4161    -0.3156     0.0754     0.1707
                     A          A          A          A          A   
    1  C  1  S    0.013546  -0.000002  -0.000003   0.000004  -0.079907
    2  C  1  S   -0.030157   0.000002   0.000007  -0.000004   0.109340
    3  C  1  X    0.413117  -0.000005  -0.000065   0.000057   0.165803
    4  C  1  Y   -0.000017  -0.309320  -0.000024   0.000017  -0.000037
    5  C  1  Z    0.000067  -0.000025   0.392453  -0.388511   0.000018
    6  C  1  S    0.005462   0.000012   0.000007  -0.000044   1.439806
    7  C  1  X    0.145415   0.000002  -0.000046   0.000104   0.620048
    8  C  1  Y   -0.000002  -0.147541  -0.000016   0.000032  -0.000085
    9  C  1  Z    0.000023  -0.000013   0.290497  -0.680559   0.000057
   10  C  1 XX   -0.007709   0.000000   0.000006   0.000008   0.004349
   11  C  1 YY    0.022116   0.000000   0.000000   0.000000  -0.012771
   12  C  1 ZZ   -0.000234  -0.000000  -0.000007  -0.000007  -0.004109
   13  C  1 XY    0.000000  -0.033486  -0.000002  -0.000001   0.000003
   14  C  1 XZ   -0.000002  -0.000000  -0.019881  -0.025089   0.000001
   15  C  1 YZ    0.000001  -0.000005   0.000001  -0.000000   0.000000
   16  C  2  S    0.013569   0.000000   0.000003   0.000002  -0.079897
   17  C  2  S   -0.030196  -0.000001  -0.000006  -0.000002   0.109301
   18  C  2  X   -0.413098   0.000007  -0.000068  -0.000059  -0.165780
   19  C  2  Y   -0.000008   0.309370   0.000014   0.000008  -0.000033
   20  C  2  Z   -0.000070  -0.000018   0.392449   0.388513  -0.000019
   21  C  2  S    0.005359   0.000002  -0.000005  -0.000024   1.439754
   22  C  2  X   -0.145422   0.000003  -0.000048  -0.000105  -0.620084
   23  C  2  Y   -0.000010   0.147560   0.000009   0.000015  -0.000078
   24  C  2  Z   -0.000024  -0.000009   0.290497   0.680561  -0.000063
   25  C  2 XX   -0.007702  -0.000000  -0.000006   0.000008   0.004345
   26  C  2 YY    0.022111  -0.000000  -0.000000   0.000000  -0.012772
   27  C  2 ZZ   -0.000232  -0.000000   0.000007  -0.000008  -0.004113
   28  C  2 XY    0.000000  -0.033490  -0.000002   0.000002  -0.000004
   29  C  2 XZ   -0.000002  -0.000001   0.019879  -0.025091   0.000001
   30  C  2 YZ   -0.000000  -0.000005  -0.000000   0.000000  -0.000000
   31  H  3  S    0.124846  -0.194341  -0.000008   0.000010  -0.027508
   32  H  3  S    0.104082  -0.179961  -0.000010   0.000032  -1.010036
   33  H  4  S    0.124839   0.194334   0.000010  -0.000001  -0.027489
   34  H  4  S    0.104082   0.179950   0.000011  -0.000009  -1.009826
   35  H  5  S    0.124849  -0.194314  -0.000010   0.000000  -0.027521
   36  H  5  S    0.104084  -0.179928  -0.000010  -0.000002  -1.009866
   37  H  6  S    0.124865   0.194315   0.000008   0.000011  -0.027539
   38  H  6  S    0.104103   0.179926   0.000010   0.000040  -1.010082

                     11         12         13         14         15
                    0.1924     0.2107     0.2950     0.3881     0.5387
                     A          A          A          A          A   
    1  C  1  S   -0.000003   0.111345  -0.000002  -0.068109  -0.021087
    2  C  1  S    0.000005  -0.136381   0.000004   0.018495  -0.196162
    3  C  1  X   -0.000009  -0.111311  -0.000003  -0.164087   0.553043
    4  C  1  Y   -0.283857  -0.000022   0.293050   0.000001   0.000008
    5  C  1  Z   -0.000018  -0.000010   0.000013  -0.000023   0.000094
    6  C  1  S   -0.000020  -1.908084   0.000093   3.101485  -0.257288
    7  C  1  X   -0.000070  -0.115784   0.000010  -2.961368  -1.056454
    8  C  1  Y   -0.750395  -0.000065   1.778284  -0.000019  -0.000018
    9  C  1  Z   -0.000059   0.000007   0.000043  -0.000514  -0.000171
   10  C  1 XX   -0.000001   0.006834   0.000000  -0.010445  -0.074596
   11  C  1 YY    0.000001   0.000615   0.000001   0.025020   0.035254
   12  C  1 ZZ    0.000000   0.010723  -0.000001  -0.011420   0.001361
   13  C  1 XY    0.025088   0.000003   0.018552   0.000000   0.000002
   14  C  1 XZ   -0.000000  -0.000001  -0.000000  -0.000001  -0.000016
   15  C  1 YZ    0.000005   0.000000   0.000004   0.000002   0.000001
   16  C  2  S    0.000022  -0.111351   0.000002   0.068105  -0.021095
   17  C  2  S   -0.000030   0.136368  -0.000001  -0.018450  -0.196215
   18  C  2  X    0.000028  -0.111350   0.000005  -0.164099  -0.552978
   19  C  2  Y   -0.283852  -0.000039  -0.293051   0.000003  -0.000003
   20  C  2  Z    0.000011  -0.000015   0.000006  -0.000022  -0.000095
   21  C  2  S   -0.000373   1.908403  -0.000065  -3.101231  -0.256850
   22  C  2  X    0.000095  -0.115973  -0.000014  -2.961508   1.056949
   23  C  2  Y   -0.750311  -0.000108  -1.778203   0.000054  -0.000004
   24  C  2  Z    0.000041  -0.000008   0.000000  -0.000525   0.000174
   25  C  2 XX    0.000000  -0.006839   0.000001   0.010444  -0.074606
   26  C  2 YY    0.000002  -0.000613  -0.000001  -0.025006   0.035249
   27  C  2 ZZ    0.000001  -0.010729   0.000000   0.011409   0.001360
   28  C  2 XY   -0.025085  -0.000002   0.018541  -0.000001   0.000000
   29  C  2 XZ   -0.000001   0.000001   0.000001   0.000001  -0.000016
   30  C  2 YZ   -0.000005   0.000001   0.000004   0.000001  -0.000000
   31  H  3  S   -0.061347  -0.035063   0.029091  -0.084080   0.081922
   32  H  3  S   -1.047642  -1.039133  -1.564776  -0.579750   0.098900
   33  H  4  S    0.061360  -0.035051  -0.029093  -0.084070   0.081923
   34  H  4  S    1.048106  -1.038874   1.564826  -0.579830   0.098929
   35  H  5  S    0.061342   0.035072   0.029121   0.084137   0.081970
   36  H  5  S    1.047974   1.038911  -1.564850   0.579566   0.098666
   37  H  6  S   -0.061350   0.035063  -0.029113   0.084134   0.081950
   38  H  6  S   -1.047902   1.038695   1.564761   0.579511   0.098680

                     16         17         18         19         20
                    0.6231     0.6350     0.7224     0.7240     0.7956
                     A          A          A          A          A   
    1  C  1  S   -0.000001  -0.000001  -0.039544  -0.000012   0.093683
    2  C  1  S    0.000009  -0.000027  -0.748348  -0.000201   0.016636
    3  C  1  X   -0.000120   0.000013   0.027787  -0.000127   0.615092
    4  C  1  Y   -0.000030  -0.402843   0.000009  -0.000023   0.000016
    5  C  1  Z    0.730955   0.000001  -0.000222   0.799861   0.000108
    6  C  1  S   -0.000025   0.000114   1.454612   0.000404  -0.796377
    7  C  1  X    0.000147  -0.000029   0.350706   0.000296  -0.544240
    8  C  1  Y    0.000025   0.782985   0.000024   0.000022  -0.000091
    9  C  1  Z   -0.646163   0.000033   0.000338  -1.120719  -0.000079
   10  C  1 XX    0.000022  -0.000001  -0.083148  -0.000031   0.173813
   11  C  1 YY   -0.000001   0.000001  -0.150558  -0.000042   0.045293
   12  C  1 ZZ   -0.000018   0.000000   0.052329   0.000025  -0.091384
   13  C  1 XY   -0.000000  -0.092802   0.000004   0.000003  -0.000002
   14  C  1 XZ   -0.061313  -0.000001  -0.000035   0.026445   0.000050
   15  C  1 YZ    0.000001  -0.000012  -0.000007   0.000000   0.000008
   16  C  2  S    0.000000  -0.000002  -0.039530  -0.000012  -0.093686
   17  C  2  S   -0.000005  -0.000026  -0.748413  -0.000207  -0.016620
   18  C  2  X   -0.000122  -0.000006  -0.027789   0.000130   0.615150
   19  C  2  Y    0.000012  -0.402947   0.000014  -0.000003   0.000001
   20  C  2  Z    0.730941  -0.000012   0.000224  -0.799875   0.000108
   21  C  2  S    0.000023   0.000011   1.454011   0.000415   0.796655
   22  C  2  X    0.000148  -0.000043  -0.351604  -0.000295  -0.544537
   23  C  2  Y   -0.000008   0.783230  -0.000038  -0.000006   0.000029
   24  C  2  Z   -0.646143  -0.000013  -0.000345   1.120730  -0.000090
   25  C  2 XX   -0.000021  -0.000005  -0.083156  -0.000031  -0.173811
   26  C  2 YY    0.000001  -0.000004  -0.150551  -0.000043  -0.045291
   27  C  2 ZZ    0.000018   0.000002   0.052323   0.000024   0.091383
   28  C  2 XY   -0.000002   0.092811  -0.000003  -0.000004   0.000001
   29  C  2 XZ    0.061313   0.000001  -0.000036   0.026444  -0.000050
   30  C  2 YZ   -0.000000   0.000014   0.000001  -0.000000   0.000004
   31  H  3  S    0.000004   0.385444  -0.406298  -0.000124  -0.372461
   32  H  3  S    0.000027   0.078705  -0.215214  -0.000060  -0.108260
   33  H  4  S    0.000006  -0.385474  -0.406274  -0.000109  -0.372454
   34  H  4  S    0.000004  -0.078732  -0.215204  -0.000070  -0.108288
   35  H  5  S   -0.000006  -0.385390  -0.406298  -0.000109   0.372434
   36  H  5  S   -0.000006  -0.078793  -0.214948  -0.000071   0.108191
   37  H  6  S   -0.000004   0.385387  -0.406332  -0.000125   0.372438
   38  H  6  S   -0.000028   0.078746  -0.214866  -0.000060   0.108067

                     21         22         23         24         25
                    0.9381     0.9766     1.0361     1.0374     1.1889
                     A          A          A          A          A   
    1  C  1  S   -0.000000  -0.000003   0.022293   0.016203  -0.030758
    2  C  1  S    0.000089   0.000101  -0.455458  -0.973635  -1.515909
    3  C  1  X    0.000037   0.000093  -0.617795  -0.342611   0.261945
    4  C  1  Y   -0.673211  -0.906755  -0.000126  -0.000093  -0.000012
    5  C  1  Z   -0.000030  -0.000032  -0.000094  -0.000045   0.000053
    6  C  1  S   -0.000169  -0.000147   0.439312   1.832971   5.696968
    7  C  1  X   -0.000039  -0.000166   1.333214   0.485132  -1.979327
    8  C  1  Y    1.129926   2.837043   0.000403   0.000253   0.000104
    9  C  1  Z    0.000058   0.000078   0.000209   0.000058  -0.000373
   10  C  1 XX    0.000014   0.000020  -0.127153  -0.098798   0.040446
   11  C  1 YY   -0.000004  -0.000009   0.111530   0.051557  -0.191006
   12  C  1 ZZ    0.000006   0.000012  -0.088538  -0.095998  -0.045880
   13  C  1 XY    0.176894   0.003681   0.000006   0.000014  -0.000001
   14  C  1 XZ    0.000003   0.000001  -0.000015  -0.000002   0.000022
   15  C  1 YZ    0.000028   0.000008   0.000007   0.000007  -0.000011
   16  C  2  S   -0.000002   0.000000  -0.021745   0.016927   0.030756
   17  C  2  S    0.000045   0.000000   0.422700  -0.988629   1.515650
   18  C  2  X   -0.000002   0.000056  -0.606058   0.362994   0.261993
   19  C  2  Y   -0.673076   0.906780   0.000095   0.000001  -0.000006
   20  C  2  Z    0.000014  -0.000011  -0.000098   0.000051   0.000050
   21  C  2  S   -0.000052  -0.000054  -0.377901   1.847999  -5.696558
   22  C  2  X    0.000015  -0.000101   1.316365  -0.528795  -1.979316
   23  C  2  Y    1.129436  -2.836961  -0.000358  -0.000098  -0.000029
   24  C  2  Z   -0.000031   0.000010   0.000216  -0.000071  -0.000362
   25  C  2 XX    0.000000  -0.000012   0.123773  -0.102976  -0.040483
   26  C  2 YY   -0.000000   0.000010  -0.109759   0.055204   0.191004
   27  C  2 ZZ    0.000004  -0.000003   0.085313  -0.098915   0.045873
   28  C  2 XY   -0.176910   0.003723  -0.000009  -0.000017  -0.000002
   29  C  2 XZ   -0.000002  -0.000001   0.000015  -0.000001  -0.000023
   30  C  2 YZ   -0.000028   0.000008   0.000002  -0.000003  -0.000007
   31  H  3  S   -0.389170   0.209038  -0.474263   0.447016   0.113280
   32  H  3  S    1.110881  -1.524587   1.002970  -0.930046   0.365154
   33  H  4  S    0.389127  -0.208979  -0.474268   0.447069   0.113309
   34  H  4  S   -1.110813   1.524482   1.003306  -0.930036   0.365170
   35  H  5  S    0.389129   0.208836   0.488879   0.431027  -0.113195
   36  H  5  S   -1.111003  -1.524276  -1.033785  -0.896210  -0.365411
   37  H  6  S   -0.389194  -0.208969   0.488832   0.430970  -0.113180
   38  H  6  S    1.111151   1.524573  -1.033337  -0.895876  -0.365315

                     26         27         28         29         30
                    1.3122     1.5639     1.6370     1.9415     2.0011
                     A          A          A          A          A   
    1  C  1  S   -0.000000  -0.000001  -0.000001  -0.000008   0.033779
    2  C  1  S    0.000049  -0.000008  -0.000021  -0.000046   0.166943
    3  C  1  X    0.000027   0.000035  -0.000000   0.000018  -0.086855
    4  C  1  Y   -0.099494   0.000014   0.000029  -0.000038   0.000012
    5  C  1  Z   -0.000020  -0.184481  -0.000003   0.000001  -0.000012
    6  C  1  S   -0.000140   0.000049   0.000078   0.000176  -0.634208
    7  C  1  X    0.000029  -0.000026  -0.000007   0.000069  -0.225245
    8  C  1  Y    2.813509  -0.000265  -0.000440   0.000014  -0.000038
    9  C  1  Z    0.000072   0.041746   0.000001   0.000000  -0.000011
   10  C  1 XX    0.000003   0.000192   0.000000   0.000017  -0.091597
   11  C  1 YY   -0.000001  -0.000018  -0.000033   0.000192  -0.540956
   12  C  1 ZZ    0.000011  -0.000176   0.000032  -0.000221   0.700284
   13  C  1 XY   -0.165203   0.000029  -0.000080   0.000029   0.000049
   14  C  1 XZ   -0.000046  -0.617914  -0.000002  -0.000007  -0.000170
   15  C  1 YZ    0.000044  -0.000004   0.679508  -0.738370  -0.000247
   16  C  2  S   -0.000001   0.000001   0.000001  -0.000008   0.033775
   17  C  2  S   -0.000029   0.000010   0.000021  -0.000046   0.166897
   18  C  2  X   -0.000005   0.000034  -0.000000  -0.000018   0.086912
   19  C  2  Y    0.099408  -0.000010  -0.000025  -0.000035   0.000015
   20  C  2  Z   -0.000018  -0.184478  -0.000002  -0.000000   0.000014
   21  C  2  S    0.000069  -0.000052  -0.000078   0.000176  -0.633705
   22  C  2  X    0.000076  -0.000024  -0.000007  -0.000069   0.225669
   23  C  2  Y   -2.813175   0.000264   0.000436  -0.000054   0.000065
   24  C  2  Z    0.000004   0.041749   0.000000  -0.000000   0.000014
   25  C  2 XX   -0.000003  -0.000192  -0.000000   0.000017  -0.091564
   26  C  2 YY   -0.000008   0.000012   0.000005   0.000161  -0.541022
   27  C  2 ZZ    0.000003   0.000182  -0.000003  -0.000190   0.700322
   28  C  2 XY   -0.165152   0.000014  -0.000089  -0.000040  -0.000048
   29  C  2 XZ    0.000042   0.617920   0.000012   0.000004  -0.000177
   30  C  2 YZ    0.000034  -0.000012   0.679491   0.738385   0.000212
   31  H  3  S   -0.686185   0.000067   0.000092  -0.000158   0.368897
   32  H  3  S   -0.792284   0.000085   0.000166  -0.000038   0.119018
   33  H  4  S    0.686190  -0.000048  -0.000073  -0.000035   0.368809
   34  H  4  S    0.792327  -0.000085  -0.000141  -0.000036   0.118996
   35  H  5  S   -0.686299   0.000046   0.000071  -0.000048   0.368797
   36  H  5  S   -0.792395   0.000087   0.000145  -0.000060   0.118979
   37  H  6  S    0.686282  -0.000069  -0.000089  -0.000146   0.368840
   38  H  6  S    0.792421  -0.000082  -0.000171  -0.000014   0.118919

                     31         32         33         34         35
                    2.1191     2.2102     2.4191     2.5139     2.8458
                     A          A          A          A          A   
    1  C  1  S   -0.000004  -0.031168   0.044382   0.000001  -0.063567
    2  C  1  S    0.000001  -0.363380   0.279089  -0.000006   0.353195
    3  C  1  X    0.000015   0.277117  -0.106048   0.000023  -0.831739
    4  C  1  Y    0.269329  -0.000015  -0.000019   0.000009   0.000017
    5  C  1  Z    0.000008   0.000052  -0.000011  -0.133345  -0.000149
    6  C  1  S    0.000063   0.236696  -1.426050  -0.000022   2.116915
    7  C  1  X   -0.000013  -0.446101   0.282687   0.000047  -1.227156
    8  C  1  Y    0.205125  -0.000006  -0.000016   0.000004  -0.000075
    9  C  1  Z    0.000025  -0.000072   0.000066  -0.275250  -0.000217
   10  C  1 XX    0.000035   0.616270   0.039859  -0.000275   1.132249
   11  C  1 YY    0.000000  -0.556153  -0.680856  -0.000023  -0.550390
   12  C  1 ZZ   -0.000046  -0.321233   0.707248   0.000302  -0.570158
   13  C  1 XY    0.691326  -0.000020  -0.000004   0.000003  -0.000166
   14  C  1 XZ   -0.000006   0.000184  -0.000136   0.914362   0.000353
   15  C  1 YZ    0.000005  -0.000020  -0.000042  -0.000008   0.000000
   16  C  2  S   -0.000004  -0.031162  -0.044389  -0.000000   0.063570
   17  C  2  S   -0.000019  -0.363271  -0.279166  -0.000011  -0.353245
   18  C  2  X   -0.000024  -0.277070  -0.106115  -0.000026  -0.831736
   19  C  2  Y    0.269380  -0.000002  -0.000001   0.000006  -0.000009
   20  C  2  Z   -0.000001  -0.000052  -0.000015   0.133347  -0.000149
   21  C  2  S    0.000042   0.236466   1.426184   0.000022  -2.116865
   22  C  2  X   -0.000032   0.446256   0.282708  -0.000036  -1.227160
   23  C  2  Y    0.204677  -0.000004  -0.000016  -0.000002   0.000095
   24  C  2  Z   -0.000020   0.000072   0.000051   0.275250  -0.000217
   25  C  2 XX    0.000007   0.616314  -0.039667  -0.000275  -1.132220
   26  C  2 YY    0.000056  -0.556370   0.680625  -0.000004   0.550359
   27  C  2 ZZ   -0.000077  -0.321049  -0.707283   0.000279   0.570184
   28  C  2 XY   -0.691211   0.000014   0.000050  -0.000025  -0.000129
   29  C  2 XZ   -0.000023   0.000182   0.000110   0.914358  -0.000351
   30  C  2 YZ   -0.000016   0.000013  -0.000003  -0.000006  -0.000000
   31  H  3  S    0.510715   0.152536  -0.438247   0.000024   0.001393
   32  H  3  S   -0.089055  -0.052253  -0.016152  -0.000013  -0.068392
   33  H  4  S   -0.510801   0.152550  -0.438195  -0.000010   0.001265
   34  H  4  S    0.089033  -0.052248  -0.016161   0.000004  -0.068416
   35  H  5  S   -0.510862   0.152493   0.438324   0.000006  -0.001198
   36  H  5  S    0.088856  -0.052375   0.016085   0.000002   0.068359
   37  H  6  S    0.510812   0.152457   0.438293   0.000039  -0.001350
   38  H  6  S   -0.088867  -0.052366   0.016072  -0.000016   0.068352

                     36         37         38
                    2.8477     4.2537     4.3974
                     A          A          A   
    1  C  1  S   -0.000012  -0.328431   0.340771
    2  C  1  S    0.000058   2.238822  -2.008466
    3  C  1  X   -0.000115  -0.112733  -0.374758
    4  C  1  Y   -0.082335  -0.000004   0.000007
    5  C  1  Z    0.000003  -0.000018  -0.000070
    6  C  1  S    0.000362   0.942815  -1.938174
    7  C  1  X   -0.000187   0.129318   0.193927
    8  C  1  Y    0.559134   0.000005  -0.000005
    9  C  1  Z    0.000015   0.000012   0.000045
   10  C  1 XX    0.000173  -1.252964   1.715031
   11  C  1 YY   -0.000067  -1.301973   1.282620
   12  C  1 ZZ   -0.000110  -1.276509   1.249335
   13  C  1 XY    0.982367  -0.000004   0.000003
   14  C  1 XZ    0.000022   0.000008   0.000095
   15  C  1 YZ    0.000149  -0.000002   0.000000
   16  C  2  S    0.000012  -0.328431  -0.340769
   17  C  2  S   -0.000052   2.238826   2.008466
   18  C  2  X   -0.000116   0.112727  -0.374737
   19  C  2  Y    0.082245  -0.000002   0.000003
   20  C  2  Z    0.000005   0.000018  -0.000070
   21  C  2  S   -0.000373   0.942731   1.938218
   22  C  2  X   -0.000183  -0.129395   0.193861
   23  C  2  Y   -0.559058  -0.000001  -0.000008
   24  C  2  Z    0.000001  -0.000014   0.000041
   25  C  2 XX   -0.000158  -1.253000  -1.715040
   26  C  2 YY    0.000060  -1.301966  -1.282617
   27  C  2 ZZ    0.000110  -1.276501  -1.249324
   28  C  2 XY    0.982503   0.000002   0.000009
   29  C  2 XZ    0.000001   0.000008  -0.000096
   30  C  2 YZ    0.000159   0.000002  -0.000001
   31  H  3  S   -0.472357   0.131910   0.108418
   32  H  3  S   -0.039986  -0.306938  -0.349100
   33  H  4  S    0.472397   0.131917   0.108428
   34  H  4  S    0.039979  -0.306942  -0.349102
   35  H  5  S   -0.472271   0.131911  -0.108421
   36  H  5  S   -0.040083  -0.306943   0.349081
   37  H  6  S    0.472225   0.131899  -0.108406
   38  H  6  S    0.040098  -0.306926   0.349064
 ...... END OF RHF CALCULATION ......
 STEP CPU TIME =     3.58 TOTAL CPU TIME =          3.7 (      0.1 MIN)
 TOTAL WALL CLOCK TIME=          3.8 SECONDS, CPU UTILIZATION IS    95.39%

     ---------------------------------------------------------------------
     PROPERTIES FOR THE BHHLYP   DFT FUNCTIONAL (RHF  TYPE) DENSITY MATRIX
     ---------------------------------------------------------------------

          -----------------
          ENERGY COMPONENTS
          -----------------

         WAVEFUNCTION NORMALIZATION =       1.0000000000

                ONE ELECTRON ENERGY =    -170.7449399748
                TWO ELECTRON ENERGY =      58.6117760702
           NUCLEAR REPULSION ENERGY =      33.6032295159
                                      ------------------
                       TOTAL ENERGY =     -78.5299343887

 ELECTRON-ELECTRON POTENTIAL ENERGY =      58.6117760702
  NUCLEUS-ELECTRON POTENTIAL ENERGY =    -248.6688519146
   NUCLEUS-NUCLEUS POTENTIAL ENERGY =      33.6032295159
                                      ------------------
             TOTAL POTENTIAL ENERGY =    -156.4538463284
               TOTAL KINETIC ENERGY =      77.9239119398
                 VIRIAL RATIO (V/T) =       2.0077771050

          ---------------------------------------
          MULLIKEN AND LOWDIN POPULATION ANALYSES
          ---------------------------------------

     ATOMIC MULLIKEN POPULATION IN EACH MOLECULAR ORBITAL

                      1          2          3          4          5

                  2.000000   2.000000   2.000000   2.000000   2.000000

    1             1.004806   0.994335   0.877332   0.645325   0.608794
    2             0.994200   1.004942   0.877407   0.645423   0.608682
    3             0.000247   0.000182   0.061310   0.177329   0.195580
    4             0.000247   0.000182   0.061313   0.177341   0.195602
    5             0.000250   0.000179   0.061321   0.177300   0.195680
    6             0.000250   0.000179   0.061317   0.177282   0.195662

                      6          7          8

                  2.000000   2.000000   2.000000

    1             0.736147   0.452009   1.000005
    2             0.736044   0.452158   0.999995
    3             0.131942   0.274006   0.000000
    4             0.131930   0.273981   0.000000
    5             0.131950   0.273919   0.000000
    6             0.131987   0.273927   0.000000

               ----- POPULATIONS IN EACH AO -----
                             MULLIKEN      LOWDIN
              1  C  1  S      1.99366     1.98058
              2  C  1  S      0.69227     0.36472
              3  C  1  X      0.77184     0.68378
              4  C  1  Y      0.73045     0.64505
              5  C  1  Z      0.53648     0.49611
              6  C  1  S      0.56915     0.33301
              7  C  1  X      0.22500     0.37044
              8  C  1  Y      0.31321     0.45782
              9  C  1  Z      0.45753     0.49371
             10  C  1 XX      0.01152     0.18242
             11  C  1 YY      0.01893     0.16924
             12  C  1 ZZ     -0.02443     0.10274
             13  C  1 XY      0.01715     0.03483
             14  C  1 XZ      0.00600     0.01019
             15  C  1 YZ      0.00000     0.00000
             16  C  2  S      1.99366     1.98058
             17  C  2  S      0.69227     0.36472
             18  C  2  X      0.77186     0.68379
             19  C  2  Y      0.73045     0.64506
             20  C  2  Z      0.53647     0.49610
             21  C  2  S      0.56920     0.33300
             22  C  2  X      0.22502     0.37044
             23  C  2  Y      0.31324     0.45783
             24  C  2  Z      0.45753     0.49371
             25  C  2 XX      0.01152     0.18243
             26  C  2 YY      0.01891     0.16922
             27  C  2 ZZ     -0.02443     0.10274
             28  C  2 XY      0.01715     0.03484
             29  C  2 XZ      0.00600     0.01019
             30  C  2 YZ      0.00000     0.00000
             31  H  3  S      0.52963     0.48459
             32  H  3  S      0.31097     0.35309
             33  H  4  S      0.52963     0.48459
             34  H  4  S      0.31096     0.35309
             35  H  5  S      0.52963     0.48458
             36  H  5  S      0.31097     0.35309
             37  H  6  S      0.52962     0.48458
             38  H  6  S      0.31099     0.35310

          ----- MULLIKEN ATOMIC OVERLAP POPULATIONS -----
          (OFF-DIAGONAL ELEMENTS NEED TO BE MULTIPLIED BY 2)

             1           2           3           4           5

    1    4.9443139
    2    0.6755441   4.9444342
    3   -0.0374209   0.3868593   0.5313188
    4   -0.0374201   0.3868648  -0.0376497   0.5313130
    5    0.3868673  -0.0374267   0.0043991  -0.0069105   0.5313055
    6    0.3868693  -0.0374248  -0.0069106   0.0043989  -0.0376355

             6

    6    0.5313067

          TOTAL MULLIKEN AND LOWDIN ATOMIC POPULATIONS
       ATOM         MULL.POP.    CHARGE          LOW.POP.     CHARGE
    1 C             6.318754   -0.318754         6.324636   -0.324636
    2 C             6.318851   -0.318851         6.324653   -0.324653
    3 H             0.840596    0.159404         0.837682    0.162318
    4 H             0.840596    0.159404         0.837680    0.162320
    5 H             0.840599    0.159401         0.837673    0.162327
    6 H             0.840604    0.159396         0.837676    0.162324

          -------------------------------
          BOND ORDER AND VALENCE ANALYSIS     BOND ORDER THRESHOLD=0.050
          -------------------------------

                   BOND                       BOND                       BOND
  ATOM PAIR DIST  ORDER      ATOM PAIR DIST  ORDER      ATOM PAIR DIST  ORDER
    1   2  1.320  2.021        1   5  1.079  0.948        1   6  1.079  0.948
    2   3  1.079  0.948        2   4  1.079  0.948

                       TOTAL       BONDED        FREE
      ATOM            VALENCE     VALENCE     VALENCE
    1 C                 3.895       3.895      -0.000
    2 C                 3.895       3.895       0.000
    3 H                 0.936       0.936       0.000
    4 H                 0.936       0.936      -0.000
    5 H                 0.936       0.936       0.000
    6 H                 0.936       0.936      -0.000

          ---------------------
          ELECTROSTATIC MOMENTS
          ---------------------

 POINT   1           X           Y           Z (BOHR)    CHARGE
                -1.247515    0.000007   -0.000224        0.00 (A.U.)
         DX          DY          DZ         /D/  (DEBYE)
    -0.000039    0.000013   -0.000011    0.000042
 ...... END OF PROPERTY EVALUATION ......
 STEP CPU TIME =     0.00 TOTAL CPU TIME =          3.7 (      0.1 MIN)
 TOTAL WALL CLOCK TIME=          3.8 SECONDS, CPU UTILIZATION IS    95.39%

 -----------------------------------------------------------------------
                    TDDFT CALCULATION FOR SCFTYP=RHF 
                          CODED BY MAHITO CHIBA
 NATIONAL INSTITUTE OF ADVANCED INDUSTRIAL SCIENCE AND TECHNOLOGY, JAPAN
 -----------------------------------------------------------------------
  
 -TDDFT RUNTIME PARAMETERS-
    TRIPLET  = F
    NONEQ    = T
    NSTATE   =                    3
    IROOT    =                    1
    NTRIAL   =                    5
    MAXVEC   =                   50
    ILENG    =                  200
    MAXGRD   =                28995
    NRAD     =                   48
    NLEB     =                  110
 GAS PHASE COMPUTATION
  
 FOR AN EULER-MACLAURIN QUADRATURE USING  48 RADIAL POINTS:
 SMALLEST GAUSSIAN PRIMITIVE EXPONENT=        0.1612777588 OF TYPE -S-
 ON ATOM NUMBER   3 HAS RADIAL NORMALIZATION=  1.000000
  LARGEST GAUSSIAN PRIMITIVE EXPONENT=     3047.5248800000 OF TYPE -S-
 ON ATOM NUMBER   1 HAS RADIAL NORMALIZATION=  1.000000
  
 MEM1  =      277875 MEM2  =        5156 MEMGRID=      306716
 MEMPCM=           0 MEMEFP=           0
 TOTAL MEMORY REQUIRED FOR TD-DFT ITERATIONS IS      589748 WORDS.

 INITIAL VECTORS / MXVEC                     5 /                  150
 ITERATION #                     1
    CURRENT VECTORS    1 TO   5 (   5 VECTORS)
    STATE NUMBER   1  ENERGY =    9.046982 EV
    STATE NUMBER   2  ENERGY =    9.751412 EV
    STATE NUMBER   3  ENERGY =    9.784831 EV
    MAX ERROR =  1.645E-01 / 1.000E-07
 ITERATION #                     2
    CURRENT VECTORS    6 TO  11 (   6 VECTORS)
    STATE NUMBER   1  ENERGY =    8.419973 EV
    STATE NUMBER   2  ENERGY =    8.968303 EV
    STATE NUMBER   3  ENERGY =    9.690167 EV
    MAX ERROR =  2.628E-03 / 1.000E-07
 ITERATION #                     3
    CURRENT VECTORS   12 TO  17 (   6 VECTORS)
    STATE NUMBER   1  ENERGY =    8.380711 EV
    STATE NUMBER   2  ENERGY =    8.967747 EV
    STATE NUMBER   3  ENERGY =    9.688054 EV
    MAX ERROR =  1.199E-04 / 1.000E-07
 ITERATION #                     4
    CURRENT VECTORS   18 TO  21 (   4 VECTORS)
    STATE NUMBER   1  ENERGY =    8.378850 EV
    STATE NUMBER   2  ENERGY =    8.967747 EV
    STATE NUMBER   3  ENERGY =    9.688026 EV
    MAX ERROR =  7.429E-06 / 1.000E-07
 ITERATION #                     5
    CURRENT VECTORS   22 TO  25 (   4 VECTORS)
    STATE NUMBER   1  ENERGY =    8.378765 EV
    STATE NUMBER   2  ENERGY =    8.967747 EV
    STATE NUMBER   3  ENERGY =    9.688025 EV
    MAX ERROR =  5.538E-07 / 1.000E-07
 ITERATION #                     6
    CURRENT VECTORS   26 TO  27 (   2 VECTORS)
    STATE NUMBER   1  ENERGY =    8.378761 EV
    STATE NUMBER   2  ENERGY =    8.967747 EV
    STATE NUMBER   3  ENERGY =    9.688025 EV
    MAX ERROR =  8.616E-08 / 1.000E-07
  
   ---------------------------------  
     R-TDDFT CALCULATION CONVERGED
   ---------------------------------  
 NUMBER OF USED VECTORS / MAX =  27 / 150
 NUMBER OF ITERATIONS   / MAX =   6 / 100
 NUMBER OF SINGLE EXCITATIONS =   240
 NUMBER OF ATOMIC ORBITALS    =  38
 NUMBER OF ELECTRONS          =          16.0012143

          -------------------
          SINGLET EXCITATIONS
          -------------------

 STATE #   1  ENERGY =    8.378761 EV
 OSCILLATOR STRENGTH =    0.393582
 LAMBDA DIAGNOSTIC   =    0.882 (RYDBERG/CHARGE TRANSFER CHARACTER)
 SYMMETRY OF STATE   =    A   
                 EXCITATION  DE-EXCITATION
     OCC     VIR  AMPLITUDE      AMPLITUDE
      I       A     X(I->A)        Y(A->I)
     ---     ---   --------       --------
      8       9   -0.994222       0.121785
      4      10   -0.077281      -0.026890
      3      12    0.038020       0.021409
      5      13    0.071260       0.027055
      6      14    0.097208       0.040738
      7      17   -0.067734      -0.032729
      6      20    0.064683       0.039318

 STATE #   2  ENERGY =    8.967747 EV
 OSCILLATOR STRENGTH =    0.000000
 LAMBDA DIAGNOSTIC   =    0.532 (RYDBERG/CHARGE TRANSFER CHARACTER)
 SYMMETRY OF STATE   =    A   
                 EXCITATION  DE-EXCITATION
     OCC     VIR  AMPLITUDE      AMPLITUDE
      I       A     X(I->A)        Y(A->I)
     ---     ---   --------       --------
      7       9    0.986216      -0.012884
      8      11   -0.157510      -0.005510
      7      19    0.048429      -0.001130

 STATE #   3  ENERGY =    9.688025 EV
 OSCILLATOR STRENGTH =    0.000405
 LAMBDA DIAGNOSTIC   =    0.413 (RYDBERG/CHARGE TRANSFER CHARACTER)
 SYMMETRY OF STATE   =    A   
                 EXCITATION  DE-EXCITATION
     OCC     VIR  AMPLITUDE      AMPLITUDE
      I       A     X(I->A)        Y(A->I)
     ---     ---   --------       --------
      4       9   -0.058096      -0.000258
      8      10   -0.997662       0.009270
      8      24    0.032364      -0.003515

                          SUMMARY OF TDDFT RESULTS

   STATE             ENERGY     EXCITATION  TRANSITION DIPOLE, A.U.  OSCILLATOR
   0 ->             HARTREE          EV         X       Y       Z     STRENGTH
   0  A          -78.5299343887    0.000
   1  A          -78.2220205622    8.379    -1.3847  0.0000 -0.0003    0.3936
   2  A          -78.2003757260    8.968     0.0003 -0.0000 -0.0000    0.0000
   3  A          -78.1739060126    9.688     0.0000 -0.0000  0.0413    0.0004
  
 TRANSITION        EXCITATION            TRANSITION DIPOLE, A.U.     OSCILLATOR
                       EV              X       Y       Z       DIP    STRENGTH

  1  ->  2           0.589         -0.0000  0.0000 -0.0000   0.0000    0.0000
  1  ->  3           1.309          0.0000 -0.0001  0.0000   0.0001    0.0000
  2  ->  3           0.720         -0.0000  0.2063  0.0000   0.2063    0.0008

 SELECTING EXCITED STATE IROOT=   1 AT E=      -78.2220205622
 AS THE STATE OF INTEREST.

 ..... DONE WITH TD-DFT EXCITATION ENERGIES .....
 STEP CPU TIME =     4.11 TOTAL CPU TIME =          7.8 (      0.1 MIN)
 TOTAL WALL CLOCK TIME=          7.9 SECONDS, CPU UTILIZATION IS    97.74%

 -----------------------------------------------------------------------
                   TD-DFT ENERGY GRADIENT CALCULATION
                   CODED BY MAHITO CHIBA (AIST, JAPAN)
 -----------------------------------------------------------------------

    -------------------------
       START Z-VECTOR LOOP
    -------------------------
 INITIAL ERROR =  1.620E-02, MUST CONVERGE TO 1.000E-10
 ITER# 1 ERROR =  6.742E-04
 ITER# 2 ERROR =  3.326E-05
 ITER# 3 ERROR =  1.837E-07
 ITER# 4 ERROR =  1.212E-09
 ITER# 5 ERROR =  1.291E-11
    -------------------------
        Z-VECTOR CONVERGED          
    -------------------------
 MAXIMUM MEMORY DURING TDDFT RESPONSES=    400810 WORDS.

 TDDFT NATURAL ORBITAL OCCUPATION NUMBERS FOR EXCITED STATE    1 ARE
  2.0000 2.0000 1.9977 1.9949 1.9940 1.9931 1.9801 1.0033 0.9972 0.0199
  0.0073 0.0064 0.0058 0.0023 0.0005 0.0001 0.0000 0.0000 0.0000 0.0000
  0.0000 0.0000 0.0000 0.0000 0.0000 0.0000 0.0000-0.0000-0.0000-0.0000
 -0.0000-0.0000-0.0000-0.0000-0.0001-0.0005-0.0010-0.0011
 THERE ARE    14.9632 ELECTRONS IN PRINCIPAL TDDFT NATURAL ORBITALS.
 THERE ARE     1.0368 ELECTRONS IN SECONDARY TDDFT NATURAL ORBITALS.

          ----------------------
          TDDFT NATURAL ORBITALS
          ----------------------

                      1          2          3          4          5

                    2.0000     2.0000     1.9977     1.9949     1.9940

    1  C  1  S   -0.702931   0.701430   0.150415   0.000004   0.000017
    2  C  1  S   -0.029401   0.030681  -0.284589  -0.000006  -0.000035
    3  C  1  X    0.000825  -0.002834  -0.028215   0.000008  -0.000025
    4  C  1  Y   -0.000000  -0.000000  -0.000013   0.336175  -0.313839
    5  C  1  Z    0.000000  -0.000001  -0.000001  -0.000004  -0.000087
    6  C  1  S    0.011721  -0.004474  -0.208485  -0.000008  -0.000027
    7  C  1  X   -0.001993  -0.001205  -0.035704  -0.000002  -0.000004
    8  C  1  Y    0.000000  -0.000000  -0.000006   0.139231  -0.147911
    9  C  1  Z   -0.000000  -0.000000  -0.000005  -0.000021  -0.000057
   10  C  1 XX    0.003919  -0.004505  -0.008451  -0.000001   0.000001
   11  C  1 YY    0.004498  -0.004907  -0.009633   0.000001  -0.000002
   12  C  1 ZZ    0.004849  -0.005186   0.016124   0.000001   0.000002
   13  C  1 XY   -0.000000   0.000000  -0.000000   0.004644  -0.031650
   14  C  1 XZ   -0.000000   0.000000  -0.000004  -0.000000   0.000003
   15  C  1 YZ   -0.000000   0.000000  -0.000001  -0.000001  -0.000004
   16  C  2  S    0.702828   0.701533   0.150432   0.000010  -0.000014
   17  C  2  S    0.029397   0.030684  -0.284616  -0.000020   0.000028
   18  C  2  X    0.000825   0.002834   0.028246   0.000004  -0.000018
   19  C  2  Y   -0.000000  -0.000000  -0.000019   0.336459   0.313537
   20  C  2  Z    0.000000   0.000001   0.000002   0.000012  -0.000080
   21  C  2  S   -0.011721  -0.004473  -0.208540  -0.000014   0.000036
   22  C  2  X   -0.001993   0.001207   0.035708   0.000001  -0.000004
   23  C  2  Y   -0.000000   0.000000  -0.000005   0.139392   0.147787
   24  C  2  Z   -0.000000   0.000000   0.000005   0.000024  -0.000053
   25  C  2 XX   -0.003918  -0.004506  -0.008454  -0.000000  -0.000001
   26  C  2 YY   -0.004497  -0.004908  -0.009632  -0.000001   0.000002
   27  C  2 ZZ   -0.004848  -0.005187   0.016127   0.000001  -0.000001
   28  C  2 XY   -0.000000  -0.000000   0.000001  -0.004677  -0.031648
   29  C  2 XZ    0.000000   0.000000  -0.000004  -0.000000  -0.000004
   30  C  2 YZ   -0.000000  -0.000000   0.000000   0.000000  -0.000004
   31  H  3  S   -0.000030  -0.000309  -0.118525  -0.150141  -0.193114
   32  H  3  S    0.001539   0.001112  -0.054218  -0.090578  -0.178375
   33  H  4  S   -0.000030  -0.000309  -0.118544   0.150123   0.193144
   34  H  4  S    0.001539   0.001112  -0.054234   0.090565   0.178382
   35  H  5  S    0.000030  -0.000308  -0.118519   0.149960  -0.193284
   36  H  5  S   -0.001539   0.001112  -0.054225   0.090416  -0.178457
   37  H  6  S    0.000030  -0.000308  -0.118508  -0.149961   0.193244
   38  H  6  S   -0.001539   0.001112  -0.054226  -0.090415   0.178438

                      6          7          8          9         10

                    1.9931     1.9801     1.0033     0.9972     0.0199

    1  C  1  S    0.124457  -0.066635  -0.000004  -0.000001  -0.097786
    2  C  1  S   -0.246053   0.131210   0.000007   0.000004   0.343194
    3  C  1  X   -0.166500  -0.431510  -0.000056  -0.000065  -0.699307
    4  C  1  Y    0.000046   0.000004  -0.000007  -0.000071   0.000007
    5  C  1  Z   -0.000026  -0.000069   0.390357   0.385077  -0.000118
    6  C  1  S   -0.274944   0.058375   0.000053  -0.000008   1.559824
    7  C  1  X   -0.041435  -0.129373  -0.000103  -0.000052  -1.225281
    8  C  1  Y    0.000024  -0.000002  -0.000052  -0.000028   0.000012
    9  C  1  Z   -0.000008  -0.000018   0.679523   0.291942  -0.000221
   10  C  1 XX    0.007955   0.014491  -0.000007   0.000013  -0.086012
   11  C  1 YY   -0.017947  -0.021031  -0.000000   0.000001   0.024865
   12  C  1 ZZ    0.010455  -0.006527   0.000006  -0.000013   0.011502
   13  C  1 XY    0.000003  -0.000001   0.000006  -0.000006   0.000000
   14  C  1 XZ    0.000000   0.000005   0.023491  -0.039369  -0.000023
   15  C  1 YZ   -0.000001  -0.000001   0.000000   0.000001  -0.000006
   16  C  2  S   -0.124420  -0.066667  -0.000002   0.000001   0.097812
   17  C  2  S    0.245989   0.131268   0.000004  -0.000004  -0.343304
   18  C  2  X   -0.166590   0.431476   0.000056  -0.000070  -0.699222
   19  C  2  Y   -0.000029  -0.000001   0.000003   0.000061  -0.000003
   20  C  2  Z   -0.000027   0.000074  -0.389670   0.385766  -0.000122
   21  C  2  S    0.274899   0.058511   0.000026   0.000004  -1.560009
   22  C  2  X   -0.041454   0.129381   0.000100  -0.000052  -1.225206
   23  C  2  Y   -0.000018   0.000006  -0.000035   0.000021   0.000002
   24  C  2  Z   -0.000008   0.000021  -0.679003   0.293159  -0.000216
   25  C  2 XX   -0.007955   0.014484  -0.000007  -0.000013   0.086015
   26  C  2 YY    0.017945  -0.021027  -0.000000  -0.000000  -0.024859
   27  C  2 ZZ   -0.010452  -0.006530   0.000007   0.000013  -0.011507
   28  C  2 XY    0.000004  -0.000000  -0.000006  -0.000007  -0.000000
   29  C  2 XZ   -0.000000   0.000005   0.023562   0.039325   0.000022
   30  C  2 YZ   -0.000001   0.000000  -0.000000  -0.000000  -0.000006
   31  H  3  S    0.144687  -0.091164  -0.000022  -0.000039   0.012828
   32  H  3  S    0.065904  -0.093416  -0.000063  -0.000050  -0.233646
   33  H  4  S    0.144650  -0.091165   0.000014   0.000041   0.012832
   34  H  4  S    0.065868  -0.093421   0.000031   0.000042  -0.233637
   35  H  5  S   -0.144638  -0.091188   0.000012  -0.000039  -0.012801
   36  H  5  S   -0.065853  -0.093427   0.000023  -0.000038   0.233789
   37  H  6  S   -0.144691  -0.091191  -0.000023   0.000040  -0.012803
   38  H  6  S   -0.065905  -0.093434  -0.000071   0.000054   0.233799

                     11         12         13         14         15

                    0.0073     0.0064     0.0058     0.0023     0.0005

    1  C  1  S   -0.077721   0.000001  -0.000007   0.093271   0.000000
    2  C  1  S    0.505674   0.000008   0.000053  -0.823180   0.000053
    3  C  1  X    0.225418   0.000019   0.000026  -0.035135  -0.000129
    4  C  1  Y   -0.000068   0.544555   0.424530  -0.000014  -0.000094
    5  C  1  Z    0.000023   0.000056   0.000103   0.000013   0.806376
    6  C  1  S    0.702112   0.000038   0.000001   0.689837  -0.000108
    7  C  1  X    0.416099   0.000013   0.000029  -0.990018   0.000178
    8  C  1  Y    0.000006   0.772859  -0.797687  -0.000039   0.000167
    9  C  1  Z    0.000034  -0.000009  -0.000204  -0.000160  -1.100739
   10  C  1 XX    0.024964   0.000001   0.000004  -0.061323   0.000003
   11  C  1 YY   -0.017878  -0.000001  -0.000006   0.025302  -0.000015
   12  C  1 ZZ   -0.017110  -0.000001  -0.000003   0.063311   0.000013
   13  C  1 XY   -0.000020   0.069949   0.217666   0.000001  -0.000031
   14  C  1 XZ    0.000006   0.000030   0.000013   0.000011  -0.035348
   15  C  1 YZ    0.000001   0.000021   0.000045   0.000014   0.000003
   16  C  2  S   -0.077680  -0.000010  -0.000004  -0.093278  -0.000000
   17  C  2  S    0.505487   0.000055   0.000041   0.823296   0.000035
   18  C  2  X   -0.225615  -0.000010  -0.000011  -0.035175   0.000139
   19  C  2  Y   -0.000001  -0.544054   0.425230   0.000027  -0.000075
   20  C  2  Z   -0.000026   0.000043  -0.000093   0.000005  -0.806388
   21  C  2  S    0.701706   0.000060   0.000025  -0.689735  -0.000040
   22  C  2  X   -0.416430  -0.000038   0.000005  -0.990150  -0.000163
   23  C  2  Y    0.000117  -0.773701  -0.797108   0.000020   0.000137
   24  C  2  Z   -0.000036  -0.000028   0.000185  -0.000169   1.100756
   25  C  2 XX    0.024984   0.000002   0.000000   0.061329   0.000005
   26  C  2 YY   -0.017888  -0.000002  -0.000000  -0.025308  -0.000011
   27  C  2 ZZ   -0.017110  -0.000002  -0.000001  -0.063323   0.000006
   28  C  2 XY    0.000011   0.069693  -0.217755  -0.000008   0.000032
   29  C  2 XZ    0.000013  -0.000029   0.000008  -0.000011  -0.035396
   30  C  2 YZ   -0.000001   0.000019  -0.000044   0.000015   0.000001
   31  H  3  S   -0.031201  -0.028325  -0.290429  -0.043880   0.000019
   32  H  3  S   -0.731672  -1.015664  -0.187830  -0.767164   0.000095
   33  H  4  S   -0.031247   0.028315   0.290429  -0.043872  -0.000014
   34  H  4  S   -0.731843   1.015521   0.187780  -0.767253  -0.000055
   35  H  5  S   -0.031263  -0.027986   0.290424   0.043890  -0.000017
   36  H  5  S   -0.731700  -1.015417   0.188849   0.767134  -0.000047
   37  H  6  S   -0.031224   0.027993  -0.290430   0.043877   0.000016
   38  H  6  S   -0.731789   1.015364  -0.188948   0.767028   0.000106

                     16         17         18         19         20

                    0.0001     0.0000     0.0000     0.0000     0.0000

    1  C  1  S   -0.015957  -0.034132   0.000001  -0.000007   0.038195
    2  C  1  S   -0.196336   1.613389  -0.000056   0.000175  -1.077082
    3  C  1  X   -0.408567   0.193532  -0.000010   0.000024  -0.074116
    4  C  1  Y    0.000011  -0.000001   0.596646   0.222018   0.000006
    5  C  1  Z   -0.000068   0.000016  -0.000327   0.000042   0.000024
    6  C  1  S   -0.974455  -2.408763   0.000120  -0.000199   1.249354
    7  C  1  X    2.049512  -0.804327  -0.000011  -0.000097   1.222764
    8  C  1  Y    0.000000  -0.000112  -2.844564   0.328281   0.000081
    9  C  1  Z    0.000332  -0.000084   0.000231   0.000113   0.000159
   10  C  1 XX   -0.119534  -0.346665   0.000017  -0.000005  -0.324055
   11  C  1 YY   -0.171834  -0.157550   0.000010  -0.000054   0.602557
   12  C  1 ZZ    0.283538  -0.083063  -0.000007  -0.000006  -0.003350
   13  C  1 XY    0.000005  -0.000007   0.551745   0.656264   0.000056
   14  C  1 XZ   -0.000135  -0.000001   0.000022  -0.000260  -0.000088
   15  C  1 YZ    0.000024  -0.000174   0.000213   0.000196   0.000252
   16  C  2  S    0.015957  -0.034145   0.000001  -0.000001  -0.038218
   17  C  2  S    0.195938   1.613342   0.000000  -0.000052   1.077184
   18  C  2  X   -0.408552  -0.193639   0.000002   0.000017  -0.074225
   19  C  2  Y   -0.000000  -0.000032  -0.596485   0.222110   0.000030
   20  C  2  Z   -0.000068   0.000009  -0.000342  -0.000035   0.000010
   21  C  2  S    0.974865  -2.407585  -0.000030   0.000147  -1.249589
   22  C  2  X    2.049494   0.805542  -0.000055  -0.000112   1.223010
   23  C  2  Y   -0.000021   0.000125   2.844344   0.328109  -0.000009
   24  C  2  Z    0.000339   0.000072   0.000300  -0.000107   0.000179
   25  C  2 XX    0.119591  -0.346625   0.000008  -0.000042   0.324075
   26  C  2 YY    0.171824  -0.157436  -0.000008   0.000053  -0.602594
   27  C  2 ZZ   -0.283510  -0.083274   0.000005  -0.000022   0.003238
   28  C  2 XY    0.000005   0.000024   0.551544  -0.656670  -0.000084
   29  C  2 XZ    0.000130  -0.000017  -0.000009  -0.000276   0.000067
   30  C  2 YZ    0.000036   0.000172   0.000172  -0.000165   0.000235
   31  H  3  S    0.227303  -0.032778  -0.315677   0.585368  -0.205016
   32  H  3  S    0.469187   0.997943   1.719391  -0.077825   1.159064
   33  H  4  S    0.227300  -0.032760   0.315665  -0.585367  -0.205167
   34  H  4  S    0.469220   0.997815  -1.719414   0.077624   1.159165
   35  H  5  S   -0.227384  -0.032716  -0.315808  -0.585087   0.204883
   36  H  5  S   -0.469263   0.997667   1.719525   0.077528  -1.158930
   37  H  6  S   -0.227386  -0.032755   0.315800   0.585005   0.204966
   38  H  6  S   -0.469225   0.997554  -1.719571  -0.077257  -1.158838

                     21         22         23         24         25

                    0.0000     0.0000     0.0000     0.0000     0.0000

    1  C  1  S   -0.025718   0.042068   0.008128   0.342402  -0.001462
    2  C  1  S    0.475002  -0.830268   0.001499  -1.710839   0.007908
    3  C  1  X   -0.476847  -0.620995   0.010607  -0.204305   0.000810
    4  C  1  Y    0.000006  -0.000008  -0.000004   0.000237  -0.187874
    5  C  1  Z   -0.000135  -0.000485  -0.000140   0.009172   0.257119
    6  C  1  S    0.655385   3.112531  -0.193699  -3.119769   0.011354
    7  C  1  X    0.725614  -1.326896  -0.512793   0.457008  -0.001746
    8  C  1  Y    0.000001   0.000068  -0.000092  -0.000705   1.257010
    9  C  1  Z    0.000196   0.000086   0.000057  -0.008112   0.004232
   10  C  1 XX   -0.795935   1.072865   0.040046   1.514008  -0.006097
   11  C  1 YY    0.232554  -0.436293  -0.503771   1.354852  -0.006197
   12  C  1 ZZ    0.000195   0.255314   0.157376   1.277245  -0.005470
   13  C  1 XY    0.000004  -0.000015   0.000006  -0.000084   0.168267
   14  C  1 XZ   -0.000226   0.000221   0.000039  -0.001068  -0.534937
   15  C  1 YZ    0.000227  -0.000027   0.000176   0.000342   0.647184
   16  C  2  S   -0.025653  -0.042108   0.007915  -0.342274   0.001097
   17  C  2  S    0.474341   0.830694   0.002594   1.710125  -0.005444
   18  C  2  X    0.477445  -0.620505  -0.010706  -0.204266   0.000677
   19  C  2  Y    0.000012   0.000004  -0.000006   0.000199  -0.001408
   20  C  2  Z    0.000009  -0.000487  -0.000137   0.009174   0.169796
   21  C  2  S    0.657614  -3.111529  -0.191221   3.119410  -0.010906
   22  C  2  X   -0.724387  -1.327736   0.514217   0.456654  -0.001479
   23  C  2  Y   -0.000062  -0.000002   0.000103  -0.000318  -0.815952
   24  C  2  Z   -0.000085   0.000103   0.000196  -0.008120  -0.384667
   25  C  2 XX   -0.794824  -1.073684   0.039319  -1.513660   0.005405
   26  C  2 YY    0.232047   0.436533  -0.504536  -1.354066   0.004539
   27  C  2 ZZ    0.000611  -0.255398   0.156513  -1.276749   0.003783
   28  C  2 XY    0.000023  -0.000009  -0.000012   0.000065   0.105624
   29  C  2 XZ   -0.000244  -0.000194  -0.000007   0.001067  -0.483111
   30  C  2 YZ   -0.000219  -0.000009  -0.000195   0.000353  -0.290155
   31  H  3  S    0.164262  -0.355823   0.701697   0.173207  -0.305472
   32  H  3  S   -0.456696   0.431516  -0.239712  -0.573271  -0.106620
   33  H  4  S    0.164281  -0.355826   0.701641   0.172867   0.303609
   34  H  4  S   -0.456627   0.431512  -0.239774  -0.572354   0.111063
   35  H  5  S    0.163794   0.355990   0.701688  -0.173538  -0.182560
   36  H  5  S   -0.456339  -0.432168  -0.239873   0.573671  -0.577578
   37  H  6  S    0.163815   0.355989   0.701669  -0.173332   0.184112
   38  H  6  S   -0.456370  -0.432092  -0.239959   0.572453   0.573412

                     26         27         28         29         30

                    0.0000     0.0000    -0.0000    -0.0000    -0.0000

    1  C  1  S    0.000485   0.000595  -0.000226  -0.003941   0.000323
    2  C  1  S   -0.002244  -0.002462   0.001286   0.019940  -0.001297
    3  C  1  X   -0.000249  -0.000257   0.000131   0.002226  -0.000115
    4  C  1  Y   -0.020181   0.337294   0.350251   0.091200  -0.327926
    5  C  1  Z   -0.037964  -0.144254   0.014513   0.655906  -0.095480
    6  C  1  S   -0.004745  -0.006934   0.001415   0.036146  -0.003647
    7  C  1  X    0.000590   0.000948  -0.000274  -0.005196   0.000522
    8  C  1  Y   -1.165155  -0.432427  -2.891236  -0.483847   0.747600
    9  C  1  Z    0.254729   0.081442  -0.046120  -0.659433  -0.166694
   10  C  1 XX    0.002156   0.002547  -0.000887  -0.017878   0.001166
   11  C  1 YY    0.001833   0.002210  -0.000953  -0.016288   0.001188
   12  C  1 ZZ    0.001687   0.002306  -0.000786  -0.014294   0.001446
   13  C  1 XY   -0.149964  -0.067161  -0.384677  -0.064646   0.107012
   14  C  1 XZ   -0.472310   0.119176   0.069670   0.081950   0.555226
   15  C  1 YZ   -0.016280   0.477926   0.354051  -0.088128   0.475685
   16  C  2  S   -0.000372  -0.000631   0.000076   0.004105  -0.000256
   17  C  2  S    0.001391   0.002693  -0.000162  -0.020995   0.000948
   18  C  2  X   -0.000160  -0.000287   0.000032   0.002349  -0.000137
   19  C  2  Y   -0.295992   0.417797  -0.121795   0.029708  -0.331816
   20  C  2  Z   -0.120622  -0.126672   0.026883   0.683892  -0.001182
   21  C  2  S    0.004813   0.006954  -0.001506  -0.036307   0.003359
   22  C  2  X    0.000600   0.000941  -0.000223  -0.005201   0.000390
   23  C  2  Y    1.901955  -1.327982   2.358215   0.202006   0.790802
   24  C  2  Z   -0.113435   0.160004   0.009152  -0.534598   0.252851
   25  C  2 XX   -0.001555  -0.002694   0.000463   0.018134  -0.001303
   26  C  2 YY   -0.001354  -0.002362   0.000282   0.016876  -0.000880
   27  C  2 ZZ   -0.001576  -0.002375   0.000312   0.015068  -0.000800
   28  C  2 XY   -0.255257   0.184556  -0.308207  -0.024491  -0.113099
   29  C  2 XZ   -0.491523   0.086257   0.074764   0.244707   0.543478
   30  C  2 YZ    0.638323   0.444712  -0.450540   0.285015   0.182444
   31  H  3  S    0.259976   0.136496   0.690295   0.116725  -0.205686
   32  H  3  S    0.895096  -1.080311   0.585249  -0.028834   0.820086
   33  H  4  S   -0.259395  -0.135985  -0.690749  -0.121497   0.205800
   34  H  4  S   -0.897175   1.077715  -0.584453   0.042545  -0.821290
   35  H  5  S    0.462010  -0.347021   0.544608   0.044500   0.215830
   36  H  5  S    0.117300   0.784541   1.148248   0.255389  -0.805723
   37  H  6  S   -0.462235   0.346372  -0.544694  -0.038960  -0.216226
   38  H  6  S   -0.115616  -0.781839  -1.148470  -0.269587   0.807228

                     31         32         33         34         35

                   -0.0000    -0.0000    -0.0000    -0.0000    -0.0001

    1  C  1  S   -0.324194  -0.074866   0.065171   0.000001  -0.065425
    2  C  1  S    1.780903  -0.463831  -0.598179  -0.000001  -0.959106
    3  C  1  X   -0.036586  -0.372941   0.171184   0.000007   0.690893
    4  C  1  Y   -0.000012   0.000032   0.000001   0.428831   0.000003
    5  C  1  Z    0.000013   0.000411   0.000036   0.000402   0.000094
    6  C  1  S    1.431560   3.594247  -0.096890  -0.000034   4.358665
    7  C  1  X    0.148101  -1.363328  -0.292343   0.000012  -2.091445
    8  C  1  Y   -0.000243  -0.000024   0.000018  -0.339681   0.000042
    9  C  1  Z   -0.000136  -0.000683  -0.000030  -0.000364  -0.000373
   10  C  1 XX   -1.007648   0.731218   0.390060  -0.000009  -0.405273
   11  C  1 YY   -1.204898   0.204782   0.732851   0.000024   0.043483
   12  C  1 ZZ   -1.446212  -0.742433  -0.316849  -0.000011   0.267004
   13  C  1 XY   -0.000040  -0.000000   0.000019  -0.706053   0.000004
   14  C  1 XZ    0.000355   0.000213   0.000097  -0.000062  -0.000208
   15  C  1 YZ   -0.000391   0.000264   0.000266  -0.000234   0.000079
   16  C  2  S   -0.324246   0.075204   0.065189   0.000001   0.065421
   17  C  2  S    1.781982   0.462151  -0.598154  -0.000005   0.959134
[...]
     OCC     VIR  AMPLITUDE      AMPLITUDE
      I       A     X(I->A)        Y(A->I)
     ---     ---   --------       --------
      3       9    0.046295      -0.005035
      6       9   -0.766056       0.020743
      7       9   -0.555679       0.014907
      8      10    0.291520      -0.003034
      8      11    0.041074      -0.000227
      6      12    0.048036       0.005221
      8      12   -0.084922      -0.002508
      8      14    0.036367      -0.014018
      6      17   -0.042299       0.001561

 STATE #   3  ENERGY =    7.636685 EV
 OSCILLATOR STRENGTH =    0.027151
 LAMBDA DIAGNOSTIC   =    0.631 (RYDBERG/CHARGE TRANSFER CHARACTER)
 SYMMETRY OF STATE   =    A   
                 EXCITATION  DE-EXCITATION
     OCC     VIR  AMPLITUDE      AMPLITUDE
      I       A     X(I->A)        Y(A->I)
     ---     ---   --------       --------
      3       9    0.070092       0.012889
      6       9   -0.260530       0.012040
      7       9   -0.130193       0.007028
      8      10   -0.953007       0.025820

                          SUMMARY OF TDDFT RESULTS

   STATE             ENERGY     EXCITATION  TRANSITION DIPOLE, A.U.  OSCILLATOR
   0 ->             HARTREE          EV         X       Y       Z     STRENGTH
   0  A          -78.3927057023    0.000
   1  A          -78.3379071510    1.491    -0.5276 -0.0533  0.0246    0.0103
   2  A          -78.1227373511    7.346    -0.0966  0.0304 -0.0016    0.0018
   3  A          -78.1120626914    7.637    -0.1007  0.3670 -0.0163    0.0272
  
 TRANSITION        EXCITATION            TRANSITION DIPOLE, A.U.     OSCILLATOR
                       EV              X       Y       Z       DIP    STRENGTH

  1  ->  2           5.855          0.0351 -0.0227 -0.2671   0.2704    0.0105
  1  ->  3           6.146          0.0266 -0.0239  0.0705   0.0791    0.0009
  2  ->  3           0.290         -0.0280  0.0198  0.0683   0.0765    0.0000

 SELECTING EXCITED STATE IROOT=   1 AT E=      -78.3379071510
 AS THE STATE OF INTEREST.

 ..... DONE WITH TD-DFT EXCITATION ENERGIES .....
 STEP CPU TIME =     5.59 TOTAL CPU TIME =       1774.3 (     29.6 MIN)
 TOTAL WALL CLOCK TIME=       1814.0 SECONDS, CPU UTILIZATION IS    97.81%

 -----------------------------------------------------------------------
                   TD-DFT ENERGY GRADIENT CALCULATION
                   CODED BY MAHITO CHIBA (AIST, JAPAN)
 -----------------------------------------------------------------------

    -------------------------
       START Z-VECTOR LOOP
    -------------------------
 INITIAL ERROR =  2.136E-03, MUST CONVERGE TO 1.000E-10
 ITER# 1 ERROR =  4.055E-04
 ITER# 2 ERROR =  2.283E-05
 ITER# 3 ERROR =  2.483E-06
 ITER# 4 ERROR =  3.052E-07
 ITER# 5 ERROR =  2.737E-08
 ITER# 6 ERROR =  3.563E-09
 ITER# 7 ERROR =  2.159E-10
 ITER# 8 ERROR =  5.208E-12
    -------------------------
        Z-VECTOR CONVERGED          
    -------------------------
 MAXIMUM MEMORY DURING TDDFT RESPONSES=    401770 WORDS.
 ..... DONE WITH TD-DFT EXCITED STATE RESPONSE AND DENSITY MATRIX .....
 STEP CPU TIME =     3.32 TOTAL CPU TIME =       1777.6 (     29.6 MIN)
 TOTAL WALL CLOCK TIME=       1817.4 SECONDS, CPU UTILIZATION IS    97.81%
 ..... END OF 1-ELECTRON GRADIENT ......
 STEP CPU TIME =     0.00 TOTAL CPU TIME =       1777.6 (     29.6 MIN)
 TOTAL WALL CLOCK TIME=       1817.4 SECONDS, CPU UTILIZATION IS    97.81%
 MEMORY FOR GRID POINT CONTRIBUTIONS TO THE TD-DFT GRADIENT=   2096821 WORDS.
 STEP CPU TIME =     5.27 TOTAL CPU TIME =       1782.9 (     29.7 MIN)
 TOTAL WALL CLOCK TIME=       1823.2 SECONDS, CPU UTILIZATION IS    97.78%
 ...... END OF 2-ELECTRON GRADIENT ......
 STEP CPU TIME =     0.10 TOTAL CPU TIME =       1783.0 (     29.7 MIN)
 TOTAL WALL CLOCK TIME=       1823.3 SECONDS, CPU UTILIZATION IS    97.78%

          NSERCH= 98     ENERGY=     -78.3379072

                                 -----------------------
                                 GRADIENT (HARTREE/BOHR)
                                 -----------------------
        ATOM     ZNUC       DE/DX         DE/DY         DE/DZ
 --------------------------------------------------------------
    1  C            6.0     0.0138151     0.0113826     0.0022390
    2  C            6.0    -0.0145566    -0.0037127    -0.0006069
    3  H            1.0     0.0029183    -0.0118919    -0.0197399
    4  H            1.0     0.0036256     0.0123512     0.0204079
    5  H            1.0    -0.0051504     0.0078263    -0.0222088
    6  H            1.0    -0.0006521    -0.0159556     0.0199086

          MAXIMUM GRADIENT = 0.0222088    RMS GRADIENT = 0.0127053

 NSERCH:  98  E=      -78.3379071510  GRAD. MAX=  0.0222088  R.M.S.=  0.0127053

          HESSIAN UPDATED USING THE BFGS FORMULA
             ACTUAL ENERGY CHANGE WAS  -0.0039555416
          PREDICTED ENERGY CHANGE WAS  -0.0036103909 RATIO=  1.096
          MIN SEARCH, CORRECT HESSIAN, TRYING PURE NR STEP
               NR STEP HAS LENGTH         =   0.637087
          TRIM/QA LAMBDA FOR NON-TS MODES =  -0.00763054
          TRIM/QA STEP HAS LENGTH         =   0.500000
          RADIUS OF STEP TAKEN=   0.50000  CURRENT TRUST RADIUS=   0.50000

 BEGINNING GEOMETRY SEARCH POINT NSERCH=  99 ...

 COORDINATES OF ALL ATOMS ARE (ANGS)
   ATOM   CHARGE       X              Y              Z
 ------------------------------------------------------------
 C           6.0   0.0369882514   0.0435469366   0.0065615514
 C           6.0  -1.3568901290   0.0233132099   0.0636446342
 H           1.0  -1.9870699122  -0.6534050841   0.6197216746
 H           1.0  -1.9559134322   0.6394180495  -0.6506157707
 H           1.0   0.7400249756   0.6202130020   0.5907461336
 H           1.0   0.5617692464  -0.6730921140  -0.6307822231

          INTERNUCLEAR DISTANCES (ANGS.)
          ------------------------------

                1 C          2 C          3 H          4 H          5 H     

   1 C       0.0000000    1.3951935 *  2.2267732 *  2.1814219 *  1.0807757 *
   2 C       1.3951935 *  0.0000000    1.0790254 *  1.1173997 *  2.2430288 *
   3 H       2.2267732 *  1.0790254 *  0.0000000    1.8127657 *  3.0099816  
   4 H       2.1814219 *  1.1173997 *  1.8127657 *  0.0000000    2.9680688 *
   5 H       1.0807757 *  2.2430288 *  3.0099816    2.9680688 *  0.0000000  
   6 H       1.0932400 *  2.1560294 *  2.8391422 *  2.8393313 *  1.7878884 *

                6 H     

   1 C       1.0932400 *
   2 C       2.1560294 *
   3 H       2.8391422 *
   4 H       2.8393313 *
   5 H       1.7878884 *
   6 H       0.0000000  

  * ... LESS THAN  3.000

 ...... END OF ONE-ELECTRON INTEGRALS ......
 STEP CPU TIME =     0.00 TOTAL CPU TIME =       1783.0 (     29.7 MIN)
 TOTAL WALL CLOCK TIME=       1823.3 SECONDS, CPU UTILIZATION IS    97.78%
 TOTAL NUMBER OF NONZERO TWO-ELECTRON INTEGRALS =              262642
         18 INTEGRAL RECORDS WERE STORED ON DISK FILE  8.
  ...... END OF TWO-ELECTRON INTEGRALS .....
 STEP CPU TIME =     0.02 TOTAL CPU TIME =       1783.0 (     29.7 MIN)
 TOTAL WALL CLOCK TIME=       1823.4 SECONDS, CPU UTILIZATION IS    97.78%

          --------------------------
            R-BHHLYP SCF CALCULATION
          --------------------------
         DENSITY MATRIX CONVERGENCE THRESHOLD=  5.00E-06
     COARSE -> FINE DFT GRID SWITCH THRESHOLD=  1.50E-03 (SWITCH IN $DFT)
                   HF -> DFT SWITCH THRESHOLD=  5.00E-03 (SWOFF IN $DFT)

 DFT CODE IS SWITCHING FROM THE FINE GRID NRAD= 96,  NLEB=  302
                      TO THE COARSE GRID NRAD0= 24, NLEB0=  110

 ITER EX DEM     TOTAL ENERGY        E CHANGE  DENSITY CHANGE    DIIS ERROR
          * * *   INITIATING DIIS PROCEDURE   * * *
   1  0  0      -78.3640910791   -78.3640910791   0.026133628   0.038960500
   2  1  0      -78.3713674907    -0.0072764116   0.011191063   0.009995852
   3  2  0      -78.3716434328    -0.0002759421   0.007020236   0.005422501
   4  3  0      -78.3717224827    -0.0000790499   0.002709437   0.003137382
   5  4  0      -78.3717490703    -0.0000265876   0.000597172   0.000857763
 DFT CODE IS SWITCHING BACK TO THE FINE GRID
          * * *   INITIATING DIIS PROCEDURE   * * *
   6  5  0      -78.3719290910    -0.0001800207   0.000565015   0.000879298
   7  6  0      -78.3719299598    -0.0000008688   0.000407197   0.000207573
   8  7  0      -78.3719299532     0.0000000066   0.000179919   0.000294304
   9  8  0      -78.3719301392    -0.0000001860   0.000059000   0.000034231
  10  9  0      -78.3719301446    -0.0000000054   0.000026195   0.000041110
  11 10  0      -78.3719301488    -0.0000000042   0.000017168   0.000018609
  12 11  0      -78.3719301501    -0.0000000012   0.000005531   0.000004830
  13 12  0      -78.3719301502    -0.0000000001   0.000001012   0.000000818

          -----------------
          DENSITY CONVERGED
          -----------------
     TIME TO FORM FOCK OPERATORS=       4.6 SECONDS (       0.4 SEC/ITER)
     TIME TO SOLVE SCF EQUATIONS=       0.0 SECONDS (       0.0 SEC/ITER)

 FINAL R-BHHLYP ENERGY IS      -78.3719301502 AFTER  13 ITERATIONS
 DFT EXCHANGE + CORRELATION ENERGY =        -6.3405559387
 TOTAL ELECTRON NUMBER             =        15.9999768924
 ...... END OF RHF CALCULATION ......
 STEP CPU TIME =     4.70 TOTAL CPU TIME =       1787.7 (     29.8 MIN)
 TOTAL WALL CLOCK TIME=       1828.4 SECONDS, CPU UTILIZATION IS    97.77%

 -----------------------------------------------------------------------
                    TDDFT CALCULATION FOR SCFTYP=RHF 
                          CODED BY MAHITO CHIBA
 NATIONAL INSTITUTE OF ADVANCED INDUSTRIAL SCIENCE AND TECHNOLOGY, JAPAN
 -----------------------------------------------------------------------
  
 -TDDFT RUNTIME PARAMETERS-
    TRIPLET  = F
    NONEQ    = T
    NSTATE   =                    3
    IROOT    =                    1
    NTRIAL   =                    5
    MAXVEC   =                   50
    ILENG    =                  200
    MAXGRD   =                29158
    NRAD     =                   48
    NLEB     =                  110
 GAS PHASE COMPUTATION
  
 FOR AN EULER-MACLAURIN QUADRATURE USING  48 RADIAL POINTS:
 SMALLEST GAUSSIAN PRIMITIVE EXPONENT=        0.1612777588 OF TYPE -S-
 ON ATOM NUMBER   3 HAS RADIAL NORMALIZATION=  1.000000
  LARGEST GAUSSIAN PRIMITIVE EXPONENT=     3047.5248800000 OF TYPE -S-
 ON ATOM NUMBER   1 HAS RADIAL NORMALIZATION=  1.000000
  
 MEM1  =      277875 MEM2  =        5156 MEMGRID=      308183
 MEMPCM=           0 MEMEFP=           0
 TOTAL MEMORY REQUIRED FOR TD-DFT ITERATIONS IS      591215 WORDS.

 INITIAL VECTORS / MXVEC                     5 /                  150
 ITERATION #                     1
    CURRENT VECTORS    1 TO   5 (   5 VECTORS)
    STATE NUMBER   1  ENERGY =    0.836399 EV
    STATE NUMBER   2  ENERGY =    7.374258 EV
    STATE NUMBER   3  ENERGY =    7.561516 EV
    MAX ERROR =  2.363E-02 / 1.000E-07
 ITERATION #                     2
    CURRENT VECTORS    6 TO  11 (   6 VECTORS)
    STATE NUMBER   1  ENERGY =    0.539818 EV
    STATE NUMBER   2  ENERGY =    7.209946 EV
    STATE NUMBER   3  ENERGY =    7.452214 EV
    MAX ERROR =  3.662E-04 / 1.000E-07
 ITERATION #                     3
    CURRENT VECTORS   12 TO  17 (   6 VECTORS)
    STATE NUMBER   1  ENERGY =    0.535774 EV
    STATE NUMBER   2  ENERGY =    7.198485 EV
    STATE NUMBER   3  ENERGY =    7.444933 EV
    MAX ERROR =  2.910E-04 / 1.000E-07
 ITERATION #                     4
    CURRENT VECTORS   18 TO  23 (   6 VECTORS)
    STATE NUMBER   1  ENERGY =    0.535717 EV
    STATE NUMBER   2  ENERGY =    7.172202 EV
    STATE NUMBER   3  ENERGY =    7.304215 EV
    MAX ERROR =  1.088E-03 / 1.000E-07
 ITERATION #                     5
    CURRENT VECTORS   24 TO  29 (   6 VECTORS)
    STATE NUMBER   1  ENERGY =    0.535716 EV
    STATE NUMBER   2  ENERGY =    7.159488 EV
    STATE NUMBER   3  ENERGY =    7.280111 EV
    MAX ERROR =  1.166E-04 / 1.000E-07
 ITERATION #                     6
    CURRENT VECTORS   30 TO  33 (   4 VECTORS)
    STATE NUMBER   1  ENERGY =    0.535716 EV
    STATE NUMBER   2  ENERGY =    7.156154 EV
    STATE NUMBER   3  ENERGY =    7.276122 EV
    MAX ERROR =  1.474E-05 / 1.000E-07
 ITERATION #                     7
    CURRENT VECTORS   34 TO  37 (   4 VECTORS)
    STATE NUMBER   1  ENERGY =    0.535716 EV
    STATE NUMBER   2  ENERGY =    7.156009 EV
    STATE NUMBER   3  ENERGY =    7.275932 EV
    MAX ERROR =  3.893E-07 / 1.000E-07
 ITERATION #                     8
    CURRENT VECTORS   38 TO  41 (   4 VECTORS)
    STATE NUMBER   1  ENERGY =    0.535716 EV
    STATE NUMBER   2  ENERGY =    7.156006 EV
    STATE NUMBER   3  ENERGY =    7.275928 EV
    MAX ERROR =  8.266E-09 / 1.000E-07
  
   ---------------------------------  
     R-TDDFT CALCULATION CONVERGED
   ---------------------------------  
 NUMBER OF USED VECTORS / MAX =  41 / 150
 NUMBER OF ITERATIONS   / MAX =   8 / 100
 NUMBER OF SINGLE EXCITATIONS =   240
 NUMBER OF ATOMIC ORBITALS    =  38
 NUMBER OF ELECTRONS          =          16.0007758

          -------------------
          SINGLET EXCITATIONS
          -------------------

 STATE #   1  ENERGY =    0.535716 EV
 OSCILLATOR STRENGTH =    0.001446
 LAMBDA DIAGNOSTIC   =    0.869 (RYDBERG/CHARGE TRANSFER CHARACTER)
 SYMMETRY OF STATE   =    A   
                 EXCITATION  DE-EXCITATION
     OCC     VIR  AMPLITUDE      AMPLITUDE
      I       A     X(I->A)        Y(A->I)
     ---     ---   --------       --------
      7       9    0.065075       0.005264
      8       9    1.349879      -0.910025

 STATE #   2  ENERGY =    7.156006 EV
 OSCILLATOR STRENGTH =    0.006092
 LAMBDA DIAGNOSTIC   =    0.644 (RYDBERG/CHARGE TRANSFER CHARACTER)
 SYMMETRY OF STATE   =    A   
                 EXCITATION  DE-EXCITATION
     OCC     VIR  AMPLITUDE      AMPLITUDE
      I       A     X(I->A)        Y(A->I)
     ---     ---   --------       --------
      5       9    0.451666      -0.008768
      6       9   -0.087373       0.001921
      7       9   -0.462847       0.017349
      8      10   -0.742425       0.017899
      6      11    0.033854      -0.002277
      8      11    0.065631      -0.000870
      5      12    0.034871       0.003180
      8      12   -0.112829      -0.001579

 STATE #   3  ENERGY =    7.275928 EV
 OSCILLATOR STRENGTH =    0.022324
 LAMBDA DIAGNOSTIC   =    0.647 (RYDBERG/CHARGE TRANSFER CHARACTER)
 SYMMETRY OF STATE   =    A   
                 EXCITATION  DE-EXCITATION
     OCC     VIR  AMPLITUDE      AMPLITUDE
      I       A     X(I->A)        Y(A->I)
     ---     ---   --------       --------
      3       9   -0.078407      -0.008275
      5       9   -0.460927       0.017303
      6       9    0.044989      -0.002058
      7       9    0.561955      -0.022903
      8      10   -0.642468       0.020671
      8      11    0.176860      -0.001366
      8      12    0.113834       0.001643
      8      13    0.047426       0.000635
      8      14    0.033566      -0.017067

                          SUMMARY OF TDDFT RESULTS

   STATE             ENERGY     EXCITATION  TRANSITION DIPOLE, A.U.  OSCILLATOR
   0 ->             HARTREE          EV         X       Y       Z     STRENGTH
   0  A          -78.3719301502    0.000
   1  A          -78.3522429634    0.536     0.3305  0.0034 -0.0310    0.0014
   2  A          -78.1089517593    7.156     0.1238  0.1346 -0.0360    0.0061
   3  A          -78.1045447013    7.276    -0.1739  0.2990 -0.0746    0.0223
  
 TRANSITION        EXCITATION            TRANSITION DIPOLE, A.U.     OSCILLATOR
                       EV              X       Y       Z       DIP    STRENGTH

  1  ->  2           6.620         -0.2612  0.0783 -0.4002   0.4842    0.0380
  1  ->  3           6.740         -0.1025  0.1202  0.1325   0.2061    0.0070
  2  ->  3           0.120         -0.7232  0.1008 -0.1488   0.7452    0.0016

 SELECTING EXCITED STATE IROOT=   1 AT E=      -78.3522429634
 AS THE STATE OF INTEREST.

 ..... DONE WITH TD-DFT EXCITATION ENERGIES .....
 STEP CPU TIME =     6.01 TOTAL CPU TIME =       1793.7 (     29.9 MIN)
 TOTAL WALL CLOCK TIME=       1834.5 SECONDS, CPU UTILIZATION IS    97.78%

 -----------------------------------------------------------------------
                   TD-DFT ENERGY GRADIENT CALCULATION
                   CODED BY MAHITO CHIBA (AIST, JAPAN)
 -----------------------------------------------------------------------

    -------------------------
       START Z-VECTOR LOOP
    -------------------------
 INITIAL ERROR =  5.335E-03, MUST CONVERGE TO 1.000E-10
 ITER# 1 ERROR =  1.454E-04
 ITER# 2 ERROR =  1.579E-05
 ITER# 3 ERROR =  1.312E-06
 ITER# 4 ERROR =  1.667E-07
 ITER# 5 ERROR =  1.915E-08
 ITER# 6 ERROR =  3.119E-09
 ITER# 7 ERROR =  3.865E-10
 ITER# 8 ERROR =  6.410E-12
    -------------------------
        Z-VECTOR CONVERGED          
    -------------------------
 MAXIMUM MEMORY DURING TDDFT RESPONSES=    402440 WORDS.
 ..... DONE WITH TD-DFT EXCITED STATE RESPONSE AND DENSITY MATRIX .....
 STEP CPU TIME =     3.31 TOTAL CPU TIME =       1797.0 (     29.9 MIN)
 TOTAL WALL CLOCK TIME=       1837.8 SECONDS, CPU UTILIZATION IS    97.78%
 ..... END OF 1-ELECTRON GRADIENT ......
 STEP CPU TIME =     0.00 TOTAL CPU TIME =       1797.0 (     30.0 MIN)
 TOTAL WALL CLOCK TIME=       1837.8 SECONDS, CPU UTILIZATION IS    97.78%
 MEMORY FOR GRID POINT CONTRIBUTIONS TO THE TD-DFT GRADIENT=   2097723 WORDS.
 STEP CPU TIME =     5.20 TOTAL CPU TIME =       1802.2 (     30.0 MIN)
 TOTAL WALL CLOCK TIME=       1843.0 SECONDS, CPU UTILIZATION IS    97.79%
 ...... END OF 2-ELECTRON GRADIENT ......
 STEP CPU TIME =     0.09 TOTAL CPU TIME =       1802.3 (     30.0 MIN)
 TOTAL WALL CLOCK TIME=       1843.1 SECONDS, CPU UTILIZATION IS    97.79%

          NSERCH= 99     ENERGY=     -78.3522430

                                 -----------------------
                                 GRADIENT (HARTREE/BOHR)
                                 -----------------------
        ATOM     ZNUC       DE/DX         DE/DY         DE/DZ
 --------------------------------------------------------------
    1  C            6.0     0.0041671     0.0039744     0.0001422
    2  C            6.0     0.0001970    -0.0119177     0.0170825
    3  H            1.0     0.0046993    -0.0567435    -0.0721621
    4  H            1.0    -0.0130288     0.0741355     0.0507178
    5  H            1.0     0.0020157     0.0558852    -0.0673091
    6  H            1.0     0.0019496    -0.0653338     0.0715286

          MAXIMUM GRADIENT = 0.0741355    RMS GRADIENT = 0.0435895

 NSERCH:  99  E=      -78.3522429634  GRAD. MAX=  0.0741355  R.M.S.=  0.0435895

          HESSIAN UPDATED USING THE BFGS FORMULA
          WARNING! HEREDITARY POSITIVE DEFINITENESS ENDANGERED
 *** ERROR! THERE ARE NOT 5 OR 6 TRANS/ROT MODES NUM T/R=    7 EIGENVALUES=
   -0.8279295965  -0.0000000000  -0.0000000000  -0.0000000000   0.0000000000
    0.0000000000   0.0000000000   0.0000000005   0.0308317847   0.0736244452
    0.0837079451   0.1181848930   0.1297770134   0.3154515778   0.4986048174
    0.8558370064   0.9219373025   1.1929367224
 THE CAUSE OF THIS IS OFTEN CORRUPTION OF THE HESSIAN
 MATRIX AFTER MANY STEPS.  THE FIX MAY BE AS SIMPLE AS
 RESTARTING THE COMPUTATION, OR MIGHT REQUIRE THAT YOU
 CONSIDER CHANGING THE COORDINATES BEING USED.
 EXECUTION OF GAMESS TERMINATED -ABNORMALLY- AT 15:58:21 11-MAR-2022    
              2097795  WORDS OF DYNAMIC MEMORY USED
 STEP CPU TIME =     0.00 TOTAL CPU TIME =       1802.3 (     30.0 MIN)
 TOTAL WALL CLOCK TIME=       1843.1 SECONDS, CPU UTILIZATION IS    97.79%
 DDI Process 0: error code 911
 ddikick.x: application process 0 quit unexpectedly.
 ddikick.x: Fatal error detected.
 The error is most likely to be in the application, so check for
 input errors, disk space, memory needs, application bugs, etc.
 ddikick.x will now clean up all processes, and exit...
 ddikick.x: Sending kill signal to DDI processes.
 ddikick.x: Execution terminated due to error(s).
